 Entering Gaussian System, Link 0=/ssoft/gaussian/g09-D.01/RH6/x86_E5v2/x86/g09/g09
 Initial command:
 /ssoft/gaussian/g09-D.01/RH6/x86_E5v2/x86/g09/l1.exe "/tmp/970467/Gau-2421.inp" -scrdir="/tmp/970467/"
 Entering Link 1 = /ssoft/gaussian/g09-D.01/RH6/x86_E5v2/x86/g09/l1.exe PID=      2422.
  
 Copyright (c) 1988,1990,1992,1993,1995,1998,2003,2009,2013,
            Gaussian, Inc.  All Rights Reserved.
  
 This is part of the Gaussian(R) 09 program.  It is based on
 the Gaussian(R) 03 system (copyright 2003, Gaussian, Inc.),
 the Gaussian(R) 98 system (copyright 1998, Gaussian, Inc.),
 the Gaussian(R) 94 system (copyright 1995, Gaussian, Inc.),
 the Gaussian 92(TM) system (copyright 1992, Gaussian, Inc.),
 the Gaussian 90(TM) system (copyright 1990, Gaussian, Inc.),
 the Gaussian 88(TM) system (copyright 1988, Gaussian, Inc.),
 the Gaussian 86(TM) system (copyright 1986, Carnegie Mellon
 University), and the Gaussian 82(TM) system (copyright 1983,
 Carnegie Mellon University). Gaussian is a federally registered
 trademark of Gaussian, Inc.
  
 This software contains proprietary and confidential information,
 including trade secrets, belonging to Gaussian, Inc.
  
 This software is provided under written license and may be
 used, copied, transmitted, or stored only in accord with that
 written license.
  
 The following legend is applicable only to US Government
 contracts under FAR:
  
                    RESTRICTED RIGHTS LEGEND
  
 Use, reproduction and disclosure by the US Government is
 subject to restrictions as set forth in subparagraphs (a)
 and (c) of the Commercial Computer Software - Restricted
 Rights clause in FAR 52.227-19.
  
 Gaussian, Inc.
 340 Quinnipiac St., Bldg. 40, Wallingford CT 06492
  
  
 ---------------------------------------------------------------
 Warning -- This program may not be used in any manner that
 competes with the business of Gaussian, Inc. or will provide
 assistance to any competitor of Gaussian, Inc.  The licensee
 of this program is prohibited from giving any competitor of
 Gaussian, Inc. access to this program.  By using this program,
 the user acknowledges that Gaussian, Inc. is engaged in the
 business of creating and licensing software in the field of
 computational chemistry and represents and warrants to the
 licensee that it is not a competitor of Gaussian, Inc. and that
 it will not use this program in any manner prohibited above.
 ---------------------------------------------------------------
  

 Cite this work as:
 Gaussian 09, Revision D.01,
 M. J. Frisch, G. W. Trucks, H. B. Schlegel, G. E. Scuseria, 
 M. A. Robb, J. R. Cheeseman, G. Scalmani, V. Barone, B. Mennucci, 
 G. A. Petersson, H. Nakatsuji, M. Caricato, X. Li, H. P. Hratchian, 
 A. F. Izmaylov, J. Bloino, G. Zheng, J. L. Sonnenberg, M. Hada, 
 M. Ehara, K. Toyota, R. Fukuda, J. Hasegawa, M. Ishida, T. Nakajima, 
 Y. Honda, O. Kitao, H. Nakai, T. Vreven, J. A. Montgomery, Jr., 
 J. E. Peralta, F. Ogliaro, M. Bearpark, J. J. Heyd, E. Brothers, 
 K. N. Kudin, V. N. Staroverov, T. Keith, R. Kobayashi, J. Normand, 
 K. Raghavachari, A. Rendell, J. C. Burant, S. S. Iyengar, J. Tomasi, 
 M. Cossi, N. Rega, J. M. Millam, M. Klene, J. E. Knox, J. B. Cross, 
 V. Bakken, C. Adamo, J. Jaramillo, R. Gomperts, R. E. Stratmann, 
 O. Yazyev, A. J. Austin, R. Cammi, C. Pomelli, J. W. Ochterski, 
 R. L. Martin, K. Morokuma, V. G. Zakrzewski, G. A. Voth, 
 P. Salvador, J. J. Dannenberg, S. Dapprich, A. D. Daniels, 
 O. Farkas, J. B. Foresman, J. V. Ortiz, J. Cioslowski, 
 and D. J. Fox, Gaussian, Inc., Wallingford CT, 2013.
 
 ******************************************
 Gaussian 09:  ES64L-G09RevD.01 24-Apr-2013
                10-Dec-2016 
 ******************************************
 %NprocShared=24
 Will use up to   24 processors via shared memory.
 %Chk=gauss.chk
 %Mem=50GB
 ------------------------------------------
 #p HFS/cc-pVQZ GFINPUT IOP(6/7=3) pop=full
 ------------------------------------------
 1/38=1/1;
 2/12=2,17=6,18=5,40=1/2;
 3/5=16,6=2,11=2,16=1,24=10,25=1,30=1,74=200/1,2,3;
 4//1;
 5/5=2,38=5/2;
 6/7=3,28=1/1;
 99/5=1,9=1/99;
 Leave Link    1 at Sat Dec 10 18:14:25 2016, MaxMem=  6710886400 cpu:         1.5
 (Enter /ssoft/gaussian/g09-D.01/RH6/x86_E5v2/x86/g09/l101.exe)
 -------
 daniele
 -------
 Symbolic Z-matrix:
 Charge =  0 Multiplicity = 1
 He                    0.        0.        0. 
 
 NAtoms=      1 NQM=        1 NQMF=       0 NMMI=      0 NMMIF=      0
                NMic=       0 NMicF=      0.
                    Isotopes and Nuclear Properties:
 (Nuclear quadrupole moments (NQMom) in fm**2, nuclear magnetic moments (NMagM)
  in nuclear magnetons)

  Atom         1
 IAtWgt=           4
 AtmWgt=   4.0026033
 NucSpn=           0
 AtZEff=   0.0000000
 NQMom=    0.0000000
 NMagM=    0.0000000
 AtZNuc=   2.0000000
 Leave Link  101 at Sat Dec 10 18:14:25 2016, MaxMem=  6710886400 cpu:         2.4
 (Enter /ssoft/gaussian/g09-D.01/RH6/x86_E5v2/x86/g09/l202.exe)
                          Input orientation:                          
 ---------------------------------------------------------------------
 Center     Atomic      Atomic             Coordinates (Angstroms)
 Number     Number       Type             X           Y           Z
 ---------------------------------------------------------------------
      1          2           0        0.000000    0.000000    0.000000
 ---------------------------------------------------------------------
 Stoichiometry    He
 Framework group  OH[O(He)]
 Deg. of freedom     0
 Full point group                 OH      NOp  48
 Largest Abelian subgroup         D2H     NOp   8
 Largest concise Abelian subgroup C1      NOp   1
                         Standard orientation:                         
 ---------------------------------------------------------------------
 Center     Atomic      Atomic             Coordinates (Angstroms)
 Number     Number       Type             X           Y           Z
 ---------------------------------------------------------------------
      1          2           0        0.000000    0.000000    0.000000
 ---------------------------------------------------------------------
 Leave Link  202 at Sat Dec 10 18:14:25 2016, MaxMem=  6710886400 cpu:         1.1
 (Enter /ssoft/gaussian/g09-D.01/RH6/x86_E5v2/x86/g09/l301.exe)
 Standard basis: CC-pVQZ (5D, 7F)
 Ernie: Thresh=  0.10000D-02 Tol=  0.10000D-05 Strict=F.
 AO basis set in the form of general basis input (Overlap normalization):
      1 0
 S   4 1.00       0.000000000000
      0.5285000000D+03  0.5874015337D-02
      0.7931000000D+02  0.4507994324D-01
      0.1805000000D+02  0.2248060657D+00
      0.5085000000D+01  0.7985036466D+00
 S   1 1.00       0.000000000000
      0.1609000000D+01  0.1000000000D+01
 S   1 1.00       0.000000000000
      0.5363000000D+00  0.1000000000D+01
 S   1 1.00       0.000000000000
      0.1833000000D+00  0.1000000000D+01
 P   1 1.00       0.000000000000
      0.5994000000D+01  0.1000000000D+01
 P   1 1.00       0.000000000000
      0.1745000000D+01  0.1000000000D+01
 P   1 1.00       0.000000000000
      0.5600000000D+00  0.1000000000D+01
 D   1 1.00       0.000000000000
      0.4299000000D+01  0.1000000000D+01
 D   1 1.00       0.000000000000
      0.1223000000D+01  0.1000000000D+01
 F   1 1.00       0.000000000000
      0.2680000000D+01  0.1000000000D+01
 ****

 There are    10 symmetry adapted cartesian basis functions of AG  symmetry.
 There are     2 symmetry adapted cartesian basis functions of B1G symmetry.
 There are     2 symmetry adapted cartesian basis functions of B2G symmetry.
 There are     2 symmetry adapted cartesian basis functions of B3G symmetry.
 There are     1 symmetry adapted cartesian basis functions of AU  symmetry.
 There are     6 symmetry adapted cartesian basis functions of B1U symmetry.
 There are     6 symmetry adapted cartesian basis functions of B2U symmetry.
 There are     6 symmetry adapted cartesian basis functions of B3U symmetry.
 There are     8 symmetry adapted basis functions of AG  symmetry.
 There are     2 symmetry adapted basis functions of B1G symmetry.
 There are     2 symmetry adapted basis functions of B2G symmetry.
 There are     2 symmetry adapted basis functions of B3G symmetry.
 There are     1 symmetry adapted basis functions of AU  symmetry.
 There are     5 symmetry adapted basis functions of B1U symmetry.
 There are     5 symmetry adapted basis functions of B2U symmetry.
 There are     5 symmetry adapted basis functions of B3U symmetry.
    30 basis functions,    38 primitive gaussians,    35 cartesian basis functions
     1 alpha electrons        1 beta electrons
       nuclear repulsion energy         0.0000000000 Hartrees.
 IExCor=  200 DFT=T Ex=S Corr=None ExCW=0 ScaHFX=  0.000000
 ScaDFX=  1.000000  1.000000  1.000000  1.000000 ScalE2=  1.000000  1.000000
 IRadAn=      0 IRanWt=     -1 IRanGd=            0 ICorTp=0 IEmpDi=  4
 NAtoms=    1 NActive=    1 NUniq=    1 SFac= 1.00D+00 NAtFMM=   60 NAOKFM=F Big=F
 Integral buffers will be    131072 words long.
 Raffenetti 2 integral format.
 Two-electron integral symmetry is turned on.
 Leave Link  301 at Sat Dec 10 18:14:25 2016, MaxMem=  6710886400 cpu:         1.4
 (Enter /ssoft/gaussian/g09-D.01/RH6/x86_E5v2/x86/g09/l302.exe)
 NPDir=0 NMtPBC=     1 NCelOv=     1 NCel=       1 NClECP=     1 NCelD=      1
         NCelK=      1 NCelE2=     1 NClLst=     1 CellRange=     0.0.
 One-electron integrals computed using PRISM.
 NBasis=    30 RedAO= T EigKep=  1.26D-01  NBF=     8     2     2     2     1     5     5     5
 NBsUse=    30 1.00D-06 EigRej= -1.00D+00 NBFU=     8     2     2     2     1     5     5     5
 Precomputing XC quadrature grid using
 IXCGrd= 4 IRadAn=           0 IRanWt=          -1 IRanGd=           0 AccXCQ= 0.00D+00.
 Generated NRdTot=       0 NPtTot=           0 NUsed=           0 NTot=          32
 NSgBfM=    35    35    35    35    35 MxSgAt=     1 MxSgA2=     1.
 Leave Link  302 at Sat Dec 10 18:14:26 2016, MaxMem=  6710886400 cpu:         9.3
 (Enter /ssoft/gaussian/g09-D.01/RH6/x86_E5v2/x86/g09/l303.exe)
 DipDrv:  MaxL=1.
 Leave Link  303 at Sat Dec 10 18:14:26 2016, MaxMem=  6710886400 cpu:         4.5
 (Enter /ssoft/gaussian/g09-D.01/RH6/x86_E5v2/x86/g09/l401.exe)
 ExpMin= 1.83D-01 ExpMax= 5.29D+02 ExpMxC= 7.93D+01 IAcc=1 IRadAn=         1 AccDes= 0.00D+00
 Harris functional with IExCor=  200 and IRadAn=       1 diagonalized for initial guess.
 HarFok:  IExCor=  200 AccDes= 0.00D+00 IRadAn=         1 IDoV= 1 UseB2=F ITyADJ=14
 ICtDFT=  3500011 ScaDFX=  1.000000  1.000000  1.000000  1.000000
 FoFCou: FMM=F IPFlag=           0 FMFlag=      100000 FMFlg1=           0
         NFxFlg=           0 DoJE=T BraDBF=F KetDBF=T FulRan=T
         wScrn=  0.000000 ICntrl=     500 IOpCl=  0 I1Cent=   200000004 NGrid=           0
         NMat0=    1 NMatS0=      1 NMatT0=    0 NMatD0=    1 NMtDS0=    0 NMtDT0=    0
 Petite list used in FoFCou.
 Harris En= -2.72385098116572    
 JPrj=0 DoOrth=F DoCkMO=F.
 Initial guess orbital symmetries:
       Occupied  (A1G)
       Virtual   (A1G) (T1U) (T1U) (T1U) (A1G) (EG) (EG) (T2G)
                 (T2G) (T2G) (T1U) (T1U) (T1U) (T1U) (T1U) (T1U)
                 (A2U) (T2U) (T2U) (T2U) (A1G) (EG) (EG) (T2G)
                 (T2G) (T2G) (T1U) (T1U) (T1U)
 The electronic state of the initial guess is 1-A1G.
 Leave Link  401 at Sat Dec 10 18:14:27 2016, MaxMem=  6710886400 cpu:        16.2
 (Enter /ssoft/gaussian/g09-D.01/RH6/x86_E5v2/x86/g09/l502.exe)
 Closed shell SCF:
 Using DIIS extrapolation, IDIIS=  1040.
 Integral symmetry usage will be decided dynamically.
 Keep J ints in memory in symmetry-blocked form, NReq=2080504.
 IVT=       23815 IEndB=       23815 NGot=  6710886400 MDV=  6710843955
 LenX=  6710843955 LenY=  6710842289
 Requested convergence on RMS density matrix=1.00D-08 within 128 cycles.
 Requested convergence on MAX density matrix=1.00D-06.
 Requested convergence on             energy=1.00D-06.
 No special actions if energy rises.
 FoFCou: FMM=F IPFlag=           0 FMFlag=           0 FMFlg1=           0
         NFxFlg=           0 DoJE=F BraDBF=F KetDBF=F FulRan=T
         wScrn=  0.000000 ICntrl=     600 IOpCl=  0 I1Cent=           0 NGrid=           0
         NMat0=    1 NMatS0=    465 NMatT0=    0 NMatD0=    1 NMtDS0=    0 NMtDT0=    0
 Petite list used in FoFCou.
 Integral accuracy reduced to 1.0D-05 until final iterations.

 Cycle   1  Pass 0  IDiag  1:
 E= -2.72291653655742    
 DIIS: error= 1.04D-02 at cycle   1 NSaved=   1.
 NSaved= 1 IEnMin= 1 EnMin= -2.72291653655742     IErMin= 1 ErrMin= 1.04D-02
 ErrMax= 1.04D-02  0.00D+00 EMaxC= 1.00D-01 BMatC= 4.34D-04 BMatP= 4.34D-04
 IDIUse=3 WtCom= 8.96D-01 WtEn= 1.04D-01
 Coeff-Com:  0.100D+01
 Coeff-En:   0.100D+01
 Coeff:      0.100D+01
 Gap=     0.903 Goal=   None    Shift=    0.000
 GapD=    0.903 DampG=2.000 DampE=0.500 DampFc=1.0000 IDamp=-1.
 RMSDP=6.32D-04 MaxDP=1.15D-02              OVMax= 1.53D-02

 Cycle   2  Pass 0  IDiag  1:
 E= -2.72320568173614     Delta-E=       -0.000289145179 Rises=F Damp=F
 DIIS: error= 4.59D-03 at cycle   2 NSaved=   2.
 NSaved= 2 IEnMin= 2 EnMin= -2.72320568173614     IErMin= 2 ErrMin= 4.59D-03
 ErrMax= 4.59D-03  0.00D+00 EMaxC= 1.00D-01 BMatC= 8.51D-05 BMatP= 4.34D-04
 IDIUse=3 WtCom= 9.54D-01 WtEn= 4.59D-02
 Coeff-Com:  0.307D+00 0.693D+00
 Coeff-En:   0.000D+00 0.100D+01
 Coeff:      0.293D+00 0.707D+00
 Gap=     0.896 Goal=   None    Shift=    0.000
 RMSDP=1.90D-04 MaxDP=3.37D-03 DE=-2.89D-04 OVMax= 4.76D-03

 Cycle   3  Pass 0  IDiag  1:
 E= -2.72327661470392     Delta-E=       -0.000070932968 Rises=F Damp=F
 DIIS: error= 9.82D-05 at cycle   3 NSaved=   3.
 NSaved= 3 IEnMin= 3 EnMin= -2.72327661470392     IErMin= 3 ErrMin= 9.82D-05
 ErrMax= 9.82D-05  0.00D+00 EMaxC= 1.00D-01 BMatC= 3.92D-08 BMatP= 8.51D-05
 IDIUse=1 WtCom= 1.00D+00 WtEn= 0.00D+00
 Coeff-Com: -0.767D-02 0.421D-02 0.100D+01
 Coeff:     -0.767D-02 0.421D-02 0.100D+01
 Gap=     0.896 Goal=   None    Shift=    0.000
 RMSDP=3.86D-06 MaxDP=6.95D-05 DE=-7.09D-05 OVMax= 9.62D-05

 Initial convergence to 1.0D-05 achieved.  Increase integral accuracy.
 Cycle   4  Pass 1  IDiag  1:
 E= -2.72327664593429     Delta-E=       -0.000000031230 Rises=F Damp=F
 DIIS: error= 1.03D-06 at cycle   1 NSaved=   1.
 NSaved= 1 IEnMin= 1 EnMin= -2.72327664593429     IErMin= 1 ErrMin= 1.03D-06
 ErrMax= 1.03D-06  0.00D+00 EMaxC= 1.00D-01 BMatC= 4.34D-12 BMatP= 4.34D-12
 IDIUse=1 WtCom= 1.00D+00 WtEn= 0.00D+00
 Coeff-Com:  0.100D+01
 Coeff:      0.100D+01
 Gap=     0.896 Goal=   None    Shift=    0.000
 RMSDP=3.86D-06 MaxDP=6.95D-05 DE=-3.12D-08 OVMax= 1.60D-06

 Cycle   5  Pass 1  IDiag  1:
 E= -2.72327664593744     Delta-E=       -0.000000000003 Rises=F Damp=F
 DIIS: error= 4.79D-07 at cycle   2 NSaved=   2.
 NSaved= 2 IEnMin= 2 EnMin= -2.72327664593744     IErMin= 2 ErrMin= 4.79D-07
 ErrMax= 4.79D-07  0.00D+00 EMaxC= 1.00D-01 BMatC= 9.26D-13 BMatP= 4.34D-12
 IDIUse=1 WtCom= 1.00D+00 WtEn= 0.00D+00
 Coeff-Com:  0.316D+00 0.684D+00
 Coeff:      0.316D+00 0.684D+00
 Gap=     0.896 Goal=   None    Shift=    0.000
 RMSDP=1.93D-08 MaxDP=3.47D-07 DE=-3.15D-12 OVMax= 4.83D-07

 Cycle   6  Pass 1  IDiag  1:
 E= -2.72327664593822     Delta-E=       -0.000000000001 Rises=F Damp=F
 DIIS: error= 5.17D-09 at cycle   3 NSaved=   3.
 NSaved= 3 IEnMin= 3 EnMin= -2.72327664593822     IErMin= 3 ErrMin= 5.17D-09
 ErrMax= 5.17D-09  0.00D+00 EMaxC= 1.00D-01 BMatC= 1.08D-16 BMatP= 9.26D-13
 IDIUse=1 WtCom= 1.00D+00 WtEn= 0.00D+00
 Coeff-Com: -0.430D-03-0.118D-01 0.101D+01
 Coeff:     -0.430D-03-0.118D-01 0.101D+01
 Gap=     0.896 Goal=   None    Shift=    0.000
 RMSDP=2.21D-10 MaxDP=3.97D-09 DE=-7.77D-13 OVMax= 5.39D-09

 SCF Done:  E(RS) =  -2.72327664594     A.U. after    6 cycles
            NFock=  6  Conv=0.22D-09     -V/T= 1.9988
 KE= 2.726507097161D+00 PE=-6.572965451735D+00 EE= 1.123181708636D+00
 Leave Link  502 at Sat Dec 10 18:14:32 2016, MaxMem=  6710886400 cpu:       131.2
 (Enter /ssoft/gaussian/g09-D.01/RH6/x86_E5v2/x86/g09/l601.exe)
 Copying SCF densities to generalized density rwf, IOpCl= 0 IROHF=0.

 **********************************************************************

            Population analysis using the SCF density.

 **********************************************************************

 Orbital symmetries:
       Occupied  (A1G)
       Virtual   (A1G) (T1U) (T1U) (T1U) (A1G) (EG) (T2G) (T2G)
                 (T2G) (EG) (T1U) (T1U) (T1U) (?A) (?A) (A2U) (?A)
                 (?A) (?A) (?A) (A1G) (EG) (EG) (T2G) (T2G) (T2G)
                 (T1U) (T1U) (T1U)
 The electronic state is 1-A1G.
 Alpha  occ. eigenvalues --   -0.51543
 Alpha virt. eigenvalues --    0.38104   0.86913   0.86913   0.86913   2.44800
 Alpha virt. eigenvalues --    3.53436   3.53436   3.53436   3.53436   3.53436
 Alpha virt. eigenvalues --    4.34424   4.34424   4.34424  11.07721  11.07721
 Alpha virt. eigenvalues --   11.07721  11.07721  11.07721  11.07721  11.07721
 Alpha virt. eigenvalues --   12.67754  15.52782  15.52782  15.52782  15.52782
 Alpha virt. eigenvalues --   15.52782  17.05144  17.05144  17.05144
     Molecular Orbital Coefficients:
                           1         2         3         4         5
                       (A1G)--O  (A1G)--V  (T1U)--V  (T1U)--V  (T1U)--V
     Eigenvalues --    -0.51543   0.38104   0.86913   0.86913   0.86913
   1 1   He 1S          0.15871  -0.12159   0.00000   0.00000   0.00000
   2        2S          0.29898  -0.02724   0.00000   0.00000   0.00000
   3        3S          0.41409  -1.27898   0.00000   0.00000   0.00000
   4        4S          0.29763   1.64496   0.00000   0.00000   0.00000
   5        5PX         0.00000   0.00000   0.00000   0.00000   0.04206
   6        5PY         0.00000   0.00000   0.00000   0.04206   0.00000
   7        5PZ         0.00000   0.00000   0.04206   0.00000   0.00000
   8        6PX         0.00000   0.00000   0.00000   0.00000  -0.14843
   9        6PY         0.00000   0.00000   0.00000  -0.14843   0.00000
  10        6PZ         0.00000   0.00000  -0.14843   0.00000   0.00000
  11        7PX         0.00000   0.00000   0.00000   0.00000   1.08755
  12        7PY         0.00000   0.00000   0.00000   1.08755   0.00000
  13        7PZ         0.00000   0.00000   1.08755   0.00000   0.00000
  14        8D 0        0.00000   0.00000   0.00000   0.00000   0.00000
  15        8D+1        0.00000   0.00000   0.00000   0.00000   0.00000
  16        8D-1        0.00000   0.00000   0.00000   0.00000   0.00000
  17        8D+2        0.00000   0.00000   0.00000   0.00000   0.00000
  18        8D-2        0.00000   0.00000   0.00000   0.00000   0.00000
  19        9D 0        0.00000   0.00000   0.00000   0.00000   0.00000
  20        9D+1        0.00000   0.00000   0.00000   0.00000   0.00000
  21        9D-1        0.00000   0.00000   0.00000   0.00000   0.00000
  22        9D+2        0.00000   0.00000   0.00000   0.00000   0.00000
  23        9D-2        0.00000   0.00000   0.00000   0.00000   0.00000
  24       10F 0        0.00000   0.00000   0.00000   0.00000   0.00000
  25       10F+1        0.00000   0.00000   0.00000   0.00000   0.00000
  26       10F-1        0.00000   0.00000   0.00000   0.00000   0.00000
  27       10F+2        0.00000   0.00000   0.00000   0.00000   0.00000
  28       10F-2        0.00000   0.00000   0.00000   0.00000   0.00000
  29       10F+3        0.00000   0.00000   0.00000   0.00000   0.00000
  30       10F-3        0.00000   0.00000   0.00000   0.00000   0.00000
                           6         7         8         9        10
                       (A1G)--V   (EG)--V  (T2G)--V  (T2G)--V  (T2G)--V
     Eigenvalues --     2.44800   3.53436   3.53436   3.53436   3.53436
   1 1   He 1S         -0.11140   0.00000   0.00000   0.00000   0.00000
   2        2S         -1.76680   0.00000   0.00000   0.00000   0.00000
   3        3S          2.67786   0.00000   0.00000   0.00000   0.00000
   4        4S         -1.16163   0.00000   0.00000   0.00000   0.00000
   5        5PX         0.00000   0.00000   0.00000   0.00000   0.00000
   6        5PY         0.00000   0.00000   0.00000   0.00000   0.00000
   7        5PZ         0.00000   0.00000   0.00000   0.00000   0.00000
   8        6PX         0.00000   0.00000   0.00000   0.00000   0.00000
   9        6PY         0.00000   0.00000   0.00000   0.00000   0.00000
  10        6PZ         0.00000   0.00000   0.00000   0.00000   0.00000
  11        7PX         0.00000   0.00000   0.00000   0.00000   0.00000
  12        7PY         0.00000   0.00000   0.00000   0.00000   0.00000
  13        7PZ         0.00000   0.00000   0.00000   0.00000   0.00000
  14        8D 0        0.00000  -0.09584   0.00000   0.00000   0.00000
  15        8D+1        0.00000   0.00000   0.00000  -0.10302   0.00000
  16        8D-1        0.00000   0.00000   0.00000   0.00000  -0.10302
  17        8D+2        0.00000   0.03778   0.00000   0.00000   0.00000
  18        8D-2        0.00000   0.00000  -0.10302   0.00000   0.00000
  19        9D 0        0.00000   0.97677   0.00000   0.00000   0.00000
  20        9D+1        0.00000   0.00000   0.00000   1.04990   0.00000
  21        9D-1        0.00000   0.00000   0.00000   0.00000   1.04990
  22        9D+2        0.00000  -0.38501   0.00000   0.00000   0.00000
  23        9D-2        0.00000   0.00000   1.04990   0.00000   0.00000
  24       10F 0        0.00000   0.00000   0.00000   0.00000   0.00000
  25       10F+1        0.00000   0.00000   0.00000   0.00000   0.00000
  26       10F-1        0.00000   0.00000   0.00000   0.00000   0.00000
  27       10F+2        0.00000   0.00000   0.00000   0.00000   0.00000
  28       10F-2        0.00000   0.00000   0.00000   0.00000   0.00000
  29       10F+3        0.00000   0.00000   0.00000   0.00000   0.00000
  30       10F-3        0.00000   0.00000   0.00000   0.00000   0.00000
                          11        12        13        14        15
                        (EG)--V  (T1U)--V  (T1U)--V  (T1U)--V      V
     Eigenvalues --     3.53436   4.34424   4.34424   4.34424  11.07721
   1 1   He 1S          0.00000   0.00000   0.00000   0.00000   0.00000
   2        2S          0.00000   0.00000   0.00000   0.00000   0.00000
   3        3S          0.00000   0.00000   0.00000   0.00000   0.00000
   4        4S          0.00000   0.00000   0.00000   0.00000   0.00000
   5        5PX         0.00000  -0.10405   0.00000   0.00000   0.00000
   6        5PY         0.00000   0.00000   0.00000  -0.10405   0.00000
   7        5PZ         0.00000   0.00000  -0.10405   0.00000   0.00000
   8        6PX         0.00000   1.45075   0.00000   0.00000   0.00000
   9        6PY         0.00000   0.00000   0.00000   1.45075   0.00000
  10        6PZ         0.00000   0.00000   1.45075   0.00000   0.00000
  11        7PX         0.00000  -0.88101   0.00000   0.00000   0.00000
  12        7PY         0.00000   0.00000   0.00000  -0.88101   0.00000
  13        7PZ         0.00000   0.00000  -0.88101   0.00000   0.00000
  14        8D 0       -0.03778   0.00000   0.00000   0.00000   0.00000
  15        8D+1        0.00000   0.00000   0.00000   0.00000   0.00000
  16        8D-1        0.00000   0.00000   0.00000   0.00000   0.00000
  17        8D+2       -0.09584   0.00000   0.00000   0.00000   0.00000
  18        8D-2        0.00000   0.00000   0.00000   0.00000   0.00000
  19        9D 0        0.38501   0.00000   0.00000   0.00000   0.00000
  20        9D+1        0.00000   0.00000   0.00000   0.00000   0.00000
  21        9D-1        0.00000   0.00000   0.00000   0.00000   0.00000
  22        9D+2        0.97677   0.00000   0.00000   0.00000   0.00000
  23        9D-2        0.00000   0.00000   0.00000   0.00000   0.00000
  24       10F 0        0.00000   0.00000   0.00000   0.00000   0.00000
  25       10F+1        0.00000   0.00000   0.00000   0.00000   0.90573
  26       10F-1        0.00000   0.00000   0.00000   0.00000   0.00000
  27       10F+2        0.00000   0.00000   0.00000   0.00000   0.00000
  28       10F-2        0.00000   0.00000   0.00000   0.00000   0.00000
  29       10F+3        0.00000   0.00000   0.00000   0.00000   0.42386
  30       10F-3        0.00000   0.00000   0.00000   0.00000   0.00000
                          16        17        18        19        20
                           V     (A2U)--V      V         V         V
     Eigenvalues --    11.07721  11.07721  11.07721  11.07721  11.07721
   1 1   He 1S          0.00000   0.00000   0.00000   0.00000   0.00000
   2        2S          0.00000   0.00000   0.00000   0.00000   0.00000
   3        3S          0.00000   0.00000   0.00000   0.00000   0.00000
   4        4S          0.00000   0.00000   0.00000   0.00000   0.00000
   5        5PX         0.00000   0.00000   0.00000   0.00000   0.00000
   6        5PY         0.00000   0.00000   0.00000   0.00000   0.00000
   7        5PZ         0.00000   0.00000   0.00000   0.00000   0.00000
   8        6PX         0.00000   0.00000   0.00000   0.00000   0.00000
   9        6PY         0.00000   0.00000   0.00000   0.00000   0.00000
  10        6PZ         0.00000   0.00000   0.00000   0.00000   0.00000
  11        7PX         0.00000   0.00000   0.00000   0.00000   0.00000
  12        7PY         0.00000   0.00000   0.00000   0.00000   0.00000
  13        7PZ         0.00000   0.00000   0.00000   0.00000   0.00000
  14        8D 0        0.00000   0.00000   0.00000   0.00000   0.00000
  15        8D+1        0.00000   0.00000   0.00000   0.00000   0.00000
  16        8D-1        0.00000   0.00000   0.00000   0.00000   0.00000
  17        8D+2        0.00000   0.00000   0.00000   0.00000   0.00000
  18        8D-2        0.00000   0.00000   0.00000   0.00000   0.00000
  19        9D 0        0.00000   0.00000   0.00000   0.00000   0.00000
  20        9D+1        0.00000   0.00000   0.00000   0.00000   0.00000
  21        9D-1        0.00000   0.00000   0.00000   0.00000   0.00000
  22        9D+2        0.00000   0.00000   0.00000   0.00000   0.00000
  23        9D-2        0.00000   0.00000   0.00000   0.00000   0.00000
  24       10F 0        0.91844   0.00000  -0.39555   0.00000   0.00000
  25       10F+1        0.00000   0.00000   0.00000   0.00000   0.00000
  26       10F-1        0.00000   0.00000   0.00000   0.99695  -0.07808
  27       10F+2        0.39555   0.00000   0.91844   0.00000   0.00000
  28       10F-2        0.00000   1.00000   0.00000   0.00000   0.00000
  29       10F+3        0.00000   0.00000   0.00000   0.00000   0.00000
  30       10F-3        0.00000   0.00000   0.00000   0.07808   0.99695
                          21        22        23        24        25
                           V     (A1G)--V   (EG)--V   (EG)--V  (T2G)--V
     Eigenvalues --    11.07721  12.67754  15.52782  15.52782  15.52782
   1 1   He 1S          0.00000  -1.67663   0.00000   0.00000   0.00000
   2        2S          0.00000   2.39598   0.00000   0.00000   0.00000
   3        3S          0.00000  -1.61635   0.00000   0.00000   0.00000
   4        4S          0.00000   0.54202   0.00000   0.00000   0.00000
   5        5PX         0.00000   0.00000   0.00000   0.00000   0.00000
   6        5PY         0.00000   0.00000   0.00000   0.00000   0.00000
   7        5PZ         0.00000   0.00000   0.00000   0.00000   0.00000
   8        6PX         0.00000   0.00000   0.00000   0.00000   0.00000
   9        6PY         0.00000   0.00000   0.00000   0.00000   0.00000
  10        6PZ         0.00000   0.00000   0.00000   0.00000   0.00000
  11        7PX         0.00000   0.00000   0.00000   0.00000   0.00000
  12        7PY         0.00000   0.00000   0.00000   0.00000   0.00000
  13        7PZ         0.00000   0.00000   0.00000   0.00000   0.00000
  14        8D 0        0.00000   0.00000  -0.46849   1.06977   0.00000
  15        8D+1        0.00000   0.00000   0.00000   0.00000   0.00000
  16        8D-1        0.00000   0.00000   0.00000   0.00000   1.16786
  17        8D+2        0.00000   0.00000   1.06977   0.46849   0.00000
  18        8D-2        0.00000   0.00000   0.00000   0.00000   0.00000
  19        9D 0        0.00000   0.00000   0.20930  -0.47791   0.00000
  20        9D+1        0.00000   0.00000   0.00000   0.00000   0.00000
  21        9D-1        0.00000   0.00000   0.00000   0.00000  -0.52174
  22        9D+2        0.00000   0.00000  -0.47791  -0.20930   0.00000
  23        9D-2        0.00000   0.00000   0.00000   0.00000   0.00000
  24       10F 0        0.00000   0.00000   0.00000   0.00000   0.00000
  25       10F+1       -0.42386   0.00000   0.00000   0.00000   0.00000
  26       10F-1        0.00000   0.00000   0.00000   0.00000   0.00000
  27       10F+2        0.00000   0.00000   0.00000   0.00000   0.00000
  28       10F-2        0.00000   0.00000   0.00000   0.00000   0.00000
  29       10F+3        0.90573   0.00000   0.00000   0.00000   0.00000
  30       10F-3        0.00000   0.00000   0.00000   0.00000   0.00000
                          26        27        28        29        30
                       (T2G)--V  (T2G)--V  (T1U)--V  (T1U)--V  (T1U)--V
     Eigenvalues --    15.52782  15.52782  17.05144  17.05144  17.05144
   1 1   He 1S          0.00000   0.00000   0.00000   0.00000   0.00000
   2        2S          0.00000   0.00000   0.00000   0.00000   0.00000
   3        3S          0.00000   0.00000   0.00000   0.00000   0.00000
   4        4S          0.00000   0.00000   0.00000   0.00000   0.00000
   5        5PX         0.00000   0.00000   0.00000   1.38702   0.00000
   6        5PY         0.00000   0.00000   0.00000   0.00000   1.38702
   7        5PZ         0.00000   0.00000   1.38702   0.00000   0.00000
   8        6PX         0.00000   0.00000   0.00000  -1.13591   0.00000
   9        6PY         0.00000   0.00000   0.00000   0.00000  -1.13591
  10        6PZ         0.00000   0.00000  -1.13591   0.00000   0.00000
  11        7PX         0.00000   0.00000   0.00000   0.42582   0.00000
  12        7PY         0.00000   0.00000   0.00000   0.00000   0.42582
  13        7PZ         0.00000   0.00000   0.42582   0.00000   0.00000
  14        8D 0        0.00000   0.00000   0.00000   0.00000   0.00000
  15        8D+1        0.00000   1.16786   0.00000   0.00000   0.00000
  16        8D-1        0.00000   0.00000   0.00000   0.00000   0.00000
  17        8D+2        0.00000   0.00000   0.00000   0.00000   0.00000
  18        8D-2        1.16786   0.00000   0.00000   0.00000   0.00000
  19        9D 0        0.00000   0.00000   0.00000   0.00000   0.00000
  20        9D+1        0.00000  -0.52174   0.00000   0.00000   0.00000
  21        9D-1        0.00000   0.00000   0.00000   0.00000   0.00000
  22        9D+2        0.00000   0.00000   0.00000   0.00000   0.00000
  23        9D-2       -0.52174   0.00000   0.00000   0.00000   0.00000
  24       10F 0        0.00000   0.00000   0.00000   0.00000   0.00000
  25       10F+1        0.00000   0.00000   0.00000   0.00000   0.00000
  26       10F-1        0.00000   0.00000   0.00000   0.00000   0.00000
  27       10F+2        0.00000   0.00000   0.00000   0.00000   0.00000
  28       10F-2        0.00000   0.00000   0.00000   0.00000   0.00000
  29       10F+3        0.00000   0.00000   0.00000   0.00000   0.00000
  30       10F-3        0.00000   0.00000   0.00000   0.00000   0.00000
     Density Matrix:
                           1         2         3         4         5
   1 1   He 1S          0.05038
   2        2S          0.09490   0.17878
   3        3S          0.13144   0.24761   0.34294
   4        4S          0.09448   0.17797   0.24649   0.17717
   5        5PX         0.00000   0.00000   0.00000   0.00000   0.00000
   6        5PY         0.00000   0.00000   0.00000   0.00000   0.00000
   7        5PZ         0.00000   0.00000   0.00000   0.00000   0.00000
   8        6PX         0.00000   0.00000   0.00000   0.00000   0.00000
   9        6PY         0.00000   0.00000   0.00000   0.00000   0.00000
  10        6PZ         0.00000   0.00000   0.00000   0.00000   0.00000
  11        7PX         0.00000   0.00000   0.00000   0.00000   0.00000
  12        7PY         0.00000   0.00000   0.00000   0.00000   0.00000
  13        7PZ         0.00000   0.00000   0.00000   0.00000   0.00000
  14        8D 0        0.00000   0.00000   0.00000   0.00000   0.00000
  15        8D+1        0.00000   0.00000   0.00000   0.00000   0.00000
  16        8D-1        0.00000   0.00000   0.00000   0.00000   0.00000
  17        8D+2        0.00000   0.00000   0.00000   0.00000   0.00000
  18        8D-2        0.00000   0.00000   0.00000   0.00000   0.00000
  19        9D 0        0.00000   0.00000   0.00000   0.00000   0.00000
  20        9D+1        0.00000   0.00000   0.00000   0.00000   0.00000
  21        9D-1        0.00000   0.00000   0.00000   0.00000   0.00000
  22        9D+2        0.00000   0.00000   0.00000   0.00000   0.00000
  23        9D-2        0.00000   0.00000   0.00000   0.00000   0.00000
  24       10F 0        0.00000   0.00000   0.00000   0.00000   0.00000
  25       10F+1        0.00000   0.00000   0.00000   0.00000   0.00000
  26       10F-1        0.00000   0.00000   0.00000   0.00000   0.00000
  27       10F+2        0.00000   0.00000   0.00000   0.00000   0.00000
  28       10F-2        0.00000   0.00000   0.00000   0.00000   0.00000
  29       10F+3        0.00000   0.00000   0.00000   0.00000   0.00000
  30       10F-3        0.00000   0.00000   0.00000   0.00000   0.00000
                           6         7         8         9        10
   6        5PY         0.00000
   7        5PZ         0.00000   0.00000
   8        6PX         0.00000   0.00000   0.00000
   9        6PY         0.00000   0.00000   0.00000   0.00000
  10        6PZ         0.00000   0.00000   0.00000   0.00000   0.00000
  11        7PX         0.00000   0.00000   0.00000   0.00000   0.00000
  12        7PY         0.00000   0.00000   0.00000   0.00000   0.00000
  13        7PZ         0.00000   0.00000   0.00000   0.00000   0.00000
  14        8D 0        0.00000   0.00000   0.00000   0.00000   0.00000
  15        8D+1        0.00000   0.00000   0.00000   0.00000   0.00000
  16        8D-1        0.00000   0.00000   0.00000   0.00000   0.00000
  17        8D+2        0.00000   0.00000   0.00000   0.00000   0.00000
  18        8D-2        0.00000   0.00000   0.00000   0.00000   0.00000
  19        9D 0        0.00000   0.00000   0.00000   0.00000   0.00000
  20        9D+1        0.00000   0.00000   0.00000   0.00000   0.00000
  21        9D-1        0.00000   0.00000   0.00000   0.00000   0.00000
  22        9D+2        0.00000   0.00000   0.00000   0.00000   0.00000
  23        9D-2        0.00000   0.00000   0.00000   0.00000   0.00000
  24       10F 0        0.00000   0.00000   0.00000   0.00000   0.00000
  25       10F+1        0.00000   0.00000   0.00000   0.00000   0.00000
  26       10F-1        0.00000   0.00000   0.00000   0.00000   0.00000
  27       10F+2        0.00000   0.00000   0.00000   0.00000   0.00000
  28       10F-2        0.00000   0.00000   0.00000   0.00000   0.00000
  29       10F+3        0.00000   0.00000   0.00000   0.00000   0.00000
  30       10F-3        0.00000   0.00000   0.00000   0.00000   0.00000
                          11        12        13        14        15
  11        7PX         0.00000
  12        7PY         0.00000   0.00000
  13        7PZ         0.00000   0.00000   0.00000
  14        8D 0        0.00000   0.00000   0.00000   0.00000
  15        8D+1        0.00000   0.00000   0.00000   0.00000   0.00000
  16        8D-1        0.00000   0.00000   0.00000   0.00000   0.00000
  17        8D+2        0.00000   0.00000   0.00000   0.00000   0.00000
  18        8D-2        0.00000   0.00000   0.00000   0.00000   0.00000
  19        9D 0        0.00000   0.00000   0.00000   0.00000   0.00000
  20        9D+1        0.00000   0.00000   0.00000   0.00000   0.00000
  21        9D-1        0.00000   0.00000   0.00000   0.00000   0.00000
  22        9D+2        0.00000   0.00000   0.00000   0.00000   0.00000
  23        9D-2        0.00000   0.00000   0.00000   0.00000   0.00000
  24       10F 0        0.00000   0.00000   0.00000   0.00000   0.00000
  25       10F+1        0.00000   0.00000   0.00000   0.00000   0.00000
  26       10F-1        0.00000   0.00000   0.00000   0.00000   0.00000
  27       10F+2        0.00000   0.00000   0.00000   0.00000   0.00000
  28       10F-2        0.00000   0.00000   0.00000   0.00000   0.00000
  29       10F+3        0.00000   0.00000   0.00000   0.00000   0.00000
  30       10F-3        0.00000   0.00000   0.00000   0.00000   0.00000
                          16        17        18        19        20
  16        8D-1        0.00000
  17        8D+2        0.00000   0.00000
  18        8D-2        0.00000   0.00000   0.00000
  19        9D 0        0.00000   0.00000   0.00000   0.00000
  20        9D+1        0.00000   0.00000   0.00000   0.00000   0.00000
  21        9D-1        0.00000   0.00000   0.00000   0.00000   0.00000
  22        9D+2        0.00000   0.00000   0.00000   0.00000   0.00000
  23        9D-2        0.00000   0.00000   0.00000   0.00000   0.00000
  24       10F 0        0.00000   0.00000   0.00000   0.00000   0.00000
  25       10F+1        0.00000   0.00000   0.00000   0.00000   0.00000
  26       10F-1        0.00000   0.00000   0.00000   0.00000   0.00000
  27       10F+2        0.00000   0.00000   0.00000   0.00000   0.00000
  28       10F-2        0.00000   0.00000   0.00000   0.00000   0.00000
  29       10F+3        0.00000   0.00000   0.00000   0.00000   0.00000
  30       10F-3        0.00000   0.00000   0.00000   0.00000   0.00000
                          21        22        23        24        25
  21        9D-1        0.00000
  22        9D+2        0.00000   0.00000
  23        9D-2        0.00000   0.00000   0.00000
  24       10F 0        0.00000   0.00000   0.00000   0.00000
  25       10F+1        0.00000   0.00000   0.00000   0.00000   0.00000
  26       10F-1        0.00000   0.00000   0.00000   0.00000   0.00000
  27       10F+2        0.00000   0.00000   0.00000   0.00000   0.00000
  28       10F-2        0.00000   0.00000   0.00000   0.00000   0.00000
  29       10F+3        0.00000   0.00000   0.00000   0.00000   0.00000
  30       10F-3        0.00000   0.00000   0.00000   0.00000   0.00000
                          26        27        28        29        30
  26       10F-1        0.00000
  27       10F+2        0.00000   0.00000
  28       10F-2        0.00000   0.00000   0.00000
  29       10F+3        0.00000   0.00000   0.00000   0.00000
  30       10F-3        0.00000   0.00000   0.00000   0.00000   0.00000
    Full Mulliken population analysis:
                           1         2         3         4         5
   1 1   He 1S          0.05038
   2        2S          0.06918   0.17878
   3        3S          0.05340   0.19955   0.34294
   4        4S          0.01876   0.08396   0.20051   0.17717
   5        5PX         0.00000   0.00000   0.00000   0.00000   0.00000
   6        5PY         0.00000   0.00000   0.00000   0.00000   0.00000
   7        5PZ         0.00000   0.00000   0.00000   0.00000   0.00000
   8        6PX         0.00000   0.00000   0.00000   0.00000   0.00000
   9        6PY         0.00000   0.00000   0.00000   0.00000   0.00000
  10        6PZ         0.00000   0.00000   0.00000   0.00000   0.00000
  11        7PX         0.00000   0.00000   0.00000   0.00000   0.00000
  12        7PY         0.00000   0.00000   0.00000   0.00000   0.00000
  13        7PZ         0.00000   0.00000   0.00000   0.00000   0.00000
  14        8D 0        0.00000   0.00000   0.00000   0.00000   0.00000
  15        8D+1        0.00000   0.00000   0.00000   0.00000   0.00000
  16        8D-1        0.00000   0.00000   0.00000   0.00000   0.00000
  17        8D+2        0.00000   0.00000   0.00000   0.00000   0.00000
  18        8D-2        0.00000   0.00000   0.00000   0.00000   0.00000
  19        9D 0        0.00000   0.00000   0.00000   0.00000   0.00000
  20        9D+1        0.00000   0.00000   0.00000   0.00000   0.00000
  21        9D-1        0.00000   0.00000   0.00000   0.00000   0.00000
  22        9D+2        0.00000   0.00000   0.00000   0.00000   0.00000
  23        9D-2        0.00000   0.00000   0.00000   0.00000   0.00000
  24       10F 0        0.00000   0.00000   0.00000   0.00000   0.00000
  25       10F+1        0.00000   0.00000   0.00000   0.00000   0.00000
  26       10F-1        0.00000   0.00000   0.00000   0.00000   0.00000
  27       10F+2        0.00000   0.00000   0.00000   0.00000   0.00000
  28       10F-2        0.00000   0.00000   0.00000   0.00000   0.00000
  29       10F+3        0.00000   0.00000   0.00000   0.00000   0.00000
  30       10F-3        0.00000   0.00000   0.00000   0.00000   0.00000
                           6         7         8         9        10
   6        5PY         0.00000
   7        5PZ         0.00000   0.00000
   8        6PX         0.00000   0.00000   0.00000
   9        6PY         0.00000   0.00000   0.00000   0.00000
  10        6PZ         0.00000   0.00000   0.00000   0.00000   0.00000
  11        7PX         0.00000   0.00000   0.00000   0.00000   0.00000
  12        7PY         0.00000   0.00000   0.00000   0.00000   0.00000
  13        7PZ         0.00000   0.00000   0.00000   0.00000   0.00000
  14        8D 0        0.00000   0.00000   0.00000   0.00000   0.00000
  15        8D+1        0.00000   0.00000   0.00000   0.00000   0.00000
  16        8D-1        0.00000   0.00000   0.00000   0.00000   0.00000
  17        8D+2        0.00000   0.00000   0.00000   0.00000   0.00000
  18        8D-2        0.00000   0.00000   0.00000   0.00000   0.00000
  19        9D 0        0.00000   0.00000   0.00000   0.00000   0.00000
  20        9D+1        0.00000   0.00000   0.00000   0.00000   0.00000
  21        9D-1        0.00000   0.00000   0.00000   0.00000   0.00000
  22        9D+2        0.00000   0.00000   0.00000   0.00000   0.00000
  23        9D-2        0.00000   0.00000   0.00000   0.00000   0.00000
  24       10F 0        0.00000   0.00000   0.00000   0.00000   0.00000
  25       10F+1        0.00000   0.00000   0.00000   0.00000   0.00000
  26       10F-1        0.00000   0.00000   0.00000   0.00000   0.00000
  27       10F+2        0.00000   0.00000   0.00000   0.00000   0.00000
  28       10F-2        0.00000   0.00000   0.00000   0.00000   0.00000
  29       10F+3        0.00000   0.00000   0.00000   0.00000   0.00000
  30       10F-3        0.00000   0.00000   0.00000   0.00000   0.00000
                          11        12        13        14        15
  11        7PX         0.00000
  12        7PY         0.00000   0.00000
  13        7PZ         0.00000   0.00000   0.00000
  14        8D 0        0.00000   0.00000   0.00000   0.00000
  15        8D+1        0.00000   0.00000   0.00000   0.00000   0.00000
  16        8D-1        0.00000   0.00000   0.00000   0.00000   0.00000
  17        8D+2        0.00000   0.00000   0.00000   0.00000   0.00000
  18        8D-2        0.00000   0.00000   0.00000   0.00000   0.00000
  19        9D 0        0.00000   0.00000   0.00000   0.00000   0.00000
  20        9D+1        0.00000   0.00000   0.00000   0.00000   0.00000
  21        9D-1        0.00000   0.00000   0.00000   0.00000   0.00000
  22        9D+2        0.00000   0.00000   0.00000   0.00000   0.00000
  23        9D-2        0.00000   0.00000   0.00000   0.00000   0.00000
  24       10F 0        0.00000   0.00000   0.00000   0.00000   0.00000
  25       10F+1        0.00000   0.00000   0.00000   0.00000   0.00000
  26       10F-1        0.00000   0.00000   0.00000   0.00000   0.00000
  27       10F+2        0.00000   0.00000   0.00000   0.00000   0.00000
  28       10F-2        0.00000   0.00000   0.00000   0.00000   0.00000
  29       10F+3        0.00000   0.00000   0.00000   0.00000   0.00000
  30       10F-3        0.00000   0.00000   0.00000   0.00000   0.00000
                          16        17        18        19        20
  16        8D-1        0.00000
  17        8D+2        0.00000   0.00000
  18        8D-2        0.00000   0.00000   0.00000
  19        9D 0        0.00000   0.00000   0.00000   0.00000
  20        9D+1        0.00000   0.00000   0.00000   0.00000   0.00000
  21        9D-1        0.00000   0.00000   0.00000   0.00000   0.00000
  22        9D+2        0.00000   0.00000   0.00000   0.00000   0.00000
  23        9D-2        0.00000   0.00000   0.00000   0.00000   0.00000
  24       10F 0        0.00000   0.00000   0.00000   0.00000   0.00000
  25       10F+1        0.00000   0.00000   0.00000   0.00000   0.00000
  26       10F-1        0.00000   0.00000   0.00000   0.00000   0.00000
  27       10F+2        0.00000   0.00000   0.00000   0.00000   0.00000
  28       10F-2        0.00000   0.00000   0.00000   0.00000   0.00000
  29       10F+3        0.00000   0.00000   0.00000   0.00000   0.00000
  30       10F-3        0.00000   0.00000   0.00000   0.00000   0.00000
                          21        22        23        24        25
  21        9D-1        0.00000
  22        9D+2        0.00000   0.00000
  23        9D-2        0.00000   0.00000   0.00000
  24       10F 0        0.00000   0.00000   0.00000   0.00000
  25       10F+1        0.00000   0.00000   0.00000   0.00000   0.00000
  26       10F-1        0.00000   0.00000   0.00000   0.00000   0.00000
  27       10F+2        0.00000   0.00000   0.00000   0.00000   0.00000
  28       10F-2        0.00000   0.00000   0.00000   0.00000   0.00000
  29       10F+3        0.00000   0.00000   0.00000   0.00000   0.00000
  30       10F-3        0.00000   0.00000   0.00000   0.00000   0.00000
                          26        27        28        29        30
  26       10F-1        0.00000
  27       10F+2        0.00000   0.00000
  28       10F-2        0.00000   0.00000   0.00000
  29       10F+3        0.00000   0.00000   0.00000   0.00000
  30       10F-3        0.00000   0.00000   0.00000   0.00000   0.00000
     Gross orbital populations:
                           1
   1 1   He 1S          0.19172
   2        2S          0.53148
   3        3S          0.79640
   4        4S          0.48040
   5        5PX         0.00000
   6        5PY         0.00000
   7        5PZ         0.00000
   8        6PX         0.00000
   9        6PY         0.00000
  10        6PZ         0.00000
  11        7PX         0.00000
  12        7PY         0.00000
  13        7PZ         0.00000
  14        8D 0        0.00000
  15        8D+1        0.00000
  16        8D-1        0.00000
  17        8D+2        0.00000
  18        8D-2        0.00000
  19        9D 0        0.00000
  20        9D+1        0.00000
  21        9D-1        0.00000
  22        9D+2        0.00000
  23        9D-2        0.00000
  24       10F 0        0.00000
  25       10F+1        0.00000
  26       10F-1        0.00000
  27       10F+2        0.00000
  28       10F-2        0.00000
  29       10F+3        0.00000
  30       10F-3        0.00000
          Condensed to atoms (all electrons):
               1
     1  He   2.000000
 Mulliken charges:
               1
     1  He   0.000000
 Sum of Mulliken charges =   0.00000
 Mulliken charges with hydrogens summed into heavy atoms:
               1
     1  He   0.000000
 Electronic spatial extent (au):  <R**2>=              2.6133
 Charge=              0.0000 electrons
 Dipole moment (field-independent basis, Debye):
    X=              0.0000    Y=              0.0000    Z=              0.0000  Tot=              0.0000
 Quadrupole moment (field-independent basis, Debye-Ang):
   XX=             -1.1717   YY=             -1.1717   ZZ=             -1.1717
   XY=              0.0000   XZ=              0.0000   YZ=              0.0000
 Traceless Quadrupole moment (field-independent basis, Debye-Ang):
   XX=              0.0000   YY=              0.0000   ZZ=              0.0000
   XY=              0.0000   XZ=              0.0000   YZ=              0.0000
 Octapole moment (field-independent basis, Debye-Ang**2):
  XXX=              0.0000  YYY=              0.0000  ZZZ=              0.0000  XYY=              0.0000
  XXY=              0.0000  XXZ=              0.0000  XZZ=              0.0000  YZZ=              0.0000
  YYZ=              0.0000  XYZ=              0.0000
 Hexadecapole moment (field-independent basis, Debye-Ang**3):
 XXXX=             -0.7216 YYYY=             -0.7216 ZZZZ=             -0.7216 XXXY=              0.0000
 XXXZ=              0.0000 YYYX=              0.0000 YYYZ=              0.0000 ZZZX=              0.0000
 ZZZY=              0.0000 XXYY=             -0.2405 XXZZ=             -0.2405 YYZZ=             -0.2405
 XXYZ=              0.0000 YYXZ=              0.0000 ZZXY=              0.0000
 N-N= 0.000000000000D+00 E-N=-6.572965444362D+00  KE= 2.726507097161D+00
 Symmetry AG   KE= 2.726507097161D+00
 Symmetry B1G  KE= 8.129614992885D-63
 Symmetry B2G  KE= 6.676273382654D-63
 Symmetry B3G  KE= 7.946284677303D-63
 Symmetry AU   KE= 0.000000000000D+00
 Symmetry B1U  KE= 0.000000000000D+00
 Symmetry B2U  KE= 0.000000000000D+00
 Symmetry B3U  KE= 0.000000000000D+00
 Orbital energies and kinetic energies (alpha):
                                 1                 2
   1         (A1G)--O         -0.515432          1.363254
   2         (A1G)--V          0.381043          1.026534
   3         (T1U)--V          0.869128          1.313072
   4         (T1U)--V          0.869128          1.313072
   5         (T1U)--V          0.869128          1.313072
   6         (A1G)--V          2.448003          4.241188
   7         (EG)--V           3.534356          4.125520
   8         (T2G)--V          3.534356          4.125520
   9         (T2G)--V          3.534356          4.125520
  10         (T2G)--V          3.534356          4.125520
  11         (EG)--V           3.534356          4.125520
  12         (T1U)--V          4.344241          5.545359
  13         (T1U)--V          4.344241          5.545359
  14         (T1U)--V          4.344241          5.545359
  15         V                11.077212         12.060000
  16         V                11.077212         12.060000
  17         (A2U)--V         11.077212         12.060000
  18         V                11.077212         12.060000
  19         V                11.077212         12.060000
  20         V                11.077212         12.060000
  21         V                11.077212         12.060000
  22         (A1G)--V         12.677542         19.760560
  23         (EG)--V          15.527816         17.447457
  24         (EG)--V          15.527816         17.447457
  25         (T2G)--V         15.527816         17.447457
  26         (T2G)--V         15.527816         17.447457
  27         (T2G)--V         15.527816         17.447457
  28         (T1U)--V         17.051443         20.422079
  29         (T1U)--V         17.051443         20.422079
  30         (T1U)--V         17.051443         20.422079
 Total kinetic energy from orbitals= 2.726507097161D+00
 No NMR shielding tensors so no spin-rotation constants.
 Leave Link  601 at Sat Dec 10 18:14:33 2016, MaxMem=  6710886400 cpu:        14.0
 (Enter /ssoft/gaussian/g09-D.01/RH6/x86_E5v2/x86/g09/l9999.exe)

 Test job not archived.
 1\1\GINC-R06-NODE01\SP\RHFS\CC-pVQZ\He1\ONGARI\10-Dec-2016\0\\#p HFS/c
 c-pVQZ GFINPUT IOP(6/7=3) pop=full\\daniele\\0,1\He,0,0.,0.,0.\\Versio
 n=ES64L-G09RevD.01\State=1-A1G\HF=-2.7232766\RMSD=2.210e-10\Dipole=0.,
 0.,0.\Quadrupole=0.,0.,0.,0.,0.,0.\PG=OH [O(He1)]\\@


 WHEN ALL ELSE FAILS, TRY THE BOSS'S SUGGESTION.
 Job cpu time:       0 days  0 hours  3 minutes 11.0 seconds.
 File lengths (MBytes):  RWF=      5 Int=      0 D2E=      0 Chk=      1 Scr=      1
 Normal termination of Gaussian 09 at Sat Dec 10 18:14:33 2016.
