 Entering Gaussian System, Link 0=/ssoft/gaussian/g09-D.01/RH6/x86_E5v2/x86/g09/g09
 Initial command:
 /ssoft/gaussian/g09-D.01/RH6/x86_E5v2/x86/g09/l1.exe "/tmp/970481/Gau-11295.inp" -scrdir="/tmp/970481/"
 Entering Link 1 = /ssoft/gaussian/g09-D.01/RH6/x86_E5v2/x86/g09/l1.exe PID=     11296.
  
 Copyright (c) 1988,1990,1992,1993,1995,1998,2003,2009,2013,
            Gaussian, Inc.  All Rights Reserved.
  
 This is part of the Gaussian(R) 09 program.  It is based on
 the Gaussian(R) 03 system (copyright 2003, Gaussian, Inc.),
 the Gaussian(R) 98 system (copyright 1998, Gaussian, Inc.),
 the Gaussian(R) 94 system (copyright 1995, Gaussian, Inc.),
 the Gaussian 92(TM) system (copyright 1992, Gaussian, Inc.),
 the Gaussian 90(TM) system (copyright 1990, Gaussian, Inc.),
 the Gaussian 88(TM) system (copyright 1988, Gaussian, Inc.),
 the Gaussian 86(TM) system (copyright 1986, Carnegie Mellon
 University), and the Gaussian 82(TM) system (copyright 1983,
 Carnegie Mellon University). Gaussian is a federally registered
 trademark of Gaussian, Inc.
  
 This software contains proprietary and confidential information,
 including trade secrets, belonging to Gaussian, Inc.
  
 This software is provided under written license and may be
 used, copied, transmitted, or stored only in accord with that
 written license.
  
 The following legend is applicable only to US Government
 contracts under FAR:
  
                    RESTRICTED RIGHTS LEGEND
  
 Use, reproduction and disclosure by the US Government is
 subject to restrictions as set forth in subparagraphs (a)
 and (c) of the Commercial Computer Software - Restricted
 Rights clause in FAR 52.227-19.
  
 Gaussian, Inc.
 340 Quinnipiac St., Bldg. 40, Wallingford CT 06492
  
  
 ---------------------------------------------------------------
 Warning -- This program may not be used in any manner that
 competes with the business of Gaussian, Inc. or will provide
 assistance to any competitor of Gaussian, Inc.  The licensee
 of this program is prohibited from giving any competitor of
 Gaussian, Inc. access to this program.  By using this program,
 the user acknowledges that Gaussian, Inc. is engaged in the
 business of creating and licensing software in the field of
 computational chemistry and represents and warrants to the
 licensee that it is not a competitor of Gaussian, Inc. and that
 it will not use this program in any manner prohibited above.
 ---------------------------------------------------------------
  

 Cite this work as:
 Gaussian 09, Revision D.01,
 M. J. Frisch, G. W. Trucks, H. B. Schlegel, G. E. Scuseria, 
 M. A. Robb, J. R. Cheeseman, G. Scalmani, V. Barone, B. Mennucci, 
 G. A. Petersson, H. Nakatsuji, M. Caricato, X. Li, H. P. Hratchian, 
 A. F. Izmaylov, J. Bloino, G. Zheng, J. L. Sonnenberg, M. Hada, 
 M. Ehara, K. Toyota, R. Fukuda, J. Hasegawa, M. Ishida, T. Nakajima, 
 Y. Honda, O. Kitao, H. Nakai, T. Vreven, J. A. Montgomery, Jr., 
 J. E. Peralta, F. Ogliaro, M. Bearpark, J. J. Heyd, E. Brothers, 
 K. N. Kudin, V. N. Staroverov, T. Keith, R. Kobayashi, J. Normand, 
 K. Raghavachari, A. Rendell, J. C. Burant, S. S. Iyengar, J. Tomasi, 
 M. Cossi, N. Rega, J. M. Millam, M. Klene, J. E. Knox, J. B. Cross, 
 V. Bakken, C. Adamo, J. Jaramillo, R. Gomperts, R. E. Stratmann, 
 O. Yazyev, A. J. Austin, R. Cammi, C. Pomelli, J. W. Ochterski, 
 R. L. Martin, K. Morokuma, V. G. Zakrzewski, G. A. Voth, 
 P. Salvador, J. J. Dannenberg, S. Dapprich, A. D. Daniels, 
 O. Farkas, J. B. Foresman, J. V. Ortiz, J. Cioslowski, 
 and D. J. Fox, Gaussian, Inc., Wallingford CT, 2013.
 
 ******************************************
 Gaussian 09:  ES64L-G09RevD.01 24-Apr-2013
                10-Dec-2016 
 ******************************************
 %NprocShared=24
 Will use up to   24 processors via shared memory.
 %Chk=gauss.chk
 %Mem=50GB
 ------------------------------------------
 #p SPL/cc-pVQZ GFINPUT IOP(6/7=3) pop=full
 ------------------------------------------
 1/38=1/1;
 2/12=2,17=6,18=5,40=1/2;
 3/5=16,6=2,11=2,16=1,24=10,25=1,30=1,74=203/1,2,3;
 4//1;
 5/5=2,38=5/2;
 6/7=3,28=1/1;
 99/5=1,9=1/99;
 Leave Link    1 at Sat Dec 10 19:56:08 2016, MaxMem=  6710886400 cpu:         1.5
 (Enter /ssoft/gaussian/g09-D.01/RH6/x86_E5v2/x86/g09/l101.exe)
 -------
 daniele
 -------
 Symbolic Z-matrix:
 Charge =  0 Multiplicity = 1
 He                    0.        0.        0. 
 
 NAtoms=      1 NQM=        1 NQMF=       0 NMMI=      0 NMMIF=      0
                NMic=       0 NMicF=      0.
                    Isotopes and Nuclear Properties:
 (Nuclear quadrupole moments (NQMom) in fm**2, nuclear magnetic moments (NMagM)
  in nuclear magnetons)

  Atom         1
 IAtWgt=           4
 AtmWgt=   4.0026033
 NucSpn=           0
 AtZEff=   0.0000000
 NQMom=    0.0000000
 NMagM=    0.0000000
 AtZNuc=   2.0000000
 Leave Link  101 at Sat Dec 10 19:56:08 2016, MaxMem=  6710886400 cpu:         2.5
 (Enter /ssoft/gaussian/g09-D.01/RH6/x86_E5v2/x86/g09/l202.exe)
                          Input orientation:                          
 ---------------------------------------------------------------------
 Center     Atomic      Atomic             Coordinates (Angstroms)
 Number     Number       Type             X           Y           Z
 ---------------------------------------------------------------------
      1          2           0        0.000000    0.000000    0.000000
 ---------------------------------------------------------------------
 Stoichiometry    He
 Framework group  OH[O(He)]
 Deg. of freedom     0
 Full point group                 OH      NOp  48
 Largest Abelian subgroup         D2H     NOp   8
 Largest concise Abelian subgroup C1      NOp   1
                         Standard orientation:                         
 ---------------------------------------------------------------------
 Center     Atomic      Atomic             Coordinates (Angstroms)
 Number     Number       Type             X           Y           Z
 ---------------------------------------------------------------------
      1          2           0        0.000000    0.000000    0.000000
 ---------------------------------------------------------------------
 Leave Link  202 at Sat Dec 10 19:56:08 2016, MaxMem=  6710886400 cpu:         1.1
 (Enter /ssoft/gaussian/g09-D.01/RH6/x86_E5v2/x86/g09/l301.exe)
 Standard basis: CC-pVQZ (5D, 7F)
 Ernie: Thresh=  0.10000D-02 Tol=  0.10000D-05 Strict=F.
 AO basis set in the form of general basis input (Overlap normalization):
      1 0
 S   4 1.00       0.000000000000
      0.5285000000D+03  0.5874015337D-02
      0.7931000000D+02  0.4507994324D-01
      0.1805000000D+02  0.2248060657D+00
      0.5085000000D+01  0.7985036466D+00
 S   1 1.00       0.000000000000
      0.1609000000D+01  0.1000000000D+01
 S   1 1.00       0.000000000000
      0.5363000000D+00  0.1000000000D+01
 S   1 1.00       0.000000000000
      0.1833000000D+00  0.1000000000D+01
 P   1 1.00       0.000000000000
      0.5994000000D+01  0.1000000000D+01
 P   1 1.00       0.000000000000
      0.1745000000D+01  0.1000000000D+01
 P   1 1.00       0.000000000000
      0.5600000000D+00  0.1000000000D+01
 D   1 1.00       0.000000000000
      0.4299000000D+01  0.1000000000D+01
 D   1 1.00       0.000000000000
      0.1223000000D+01  0.1000000000D+01
 F   1 1.00       0.000000000000
      0.2680000000D+01  0.1000000000D+01
 ****

 There are    10 symmetry adapted cartesian basis functions of AG  symmetry.
 There are     2 symmetry adapted cartesian basis functions of B1G symmetry.
 There are     2 symmetry adapted cartesian basis functions of B2G symmetry.
 There are     2 symmetry adapted cartesian basis functions of B3G symmetry.
 There are     1 symmetry adapted cartesian basis functions of AU  symmetry.
 There are     6 symmetry adapted cartesian basis functions of B1U symmetry.
 There are     6 symmetry adapted cartesian basis functions of B2U symmetry.
 There are     6 symmetry adapted cartesian basis functions of B3U symmetry.
 There are     8 symmetry adapted basis functions of AG  symmetry.
 There are     2 symmetry adapted basis functions of B1G symmetry.
 There are     2 symmetry adapted basis functions of B2G symmetry.
 There are     2 symmetry adapted basis functions of B3G symmetry.
 There are     1 symmetry adapted basis functions of AU  symmetry.
 There are     5 symmetry adapted basis functions of B1U symmetry.
 There are     5 symmetry adapted basis functions of B2U symmetry.
 There are     5 symmetry adapted basis functions of B3U symmetry.
    30 basis functions,    38 primitive gaussians,    35 cartesian basis functions
     1 alpha electrons        1 beta electrons
       nuclear repulsion energy         0.0000000000 Hartrees.
 IExCor=  203 DFT=T Ex=S Corr=P81 ExCW=0 ScaHFX=  0.000000
 ScaDFX=  1.000000  1.000000  1.000000  1.000000 ScalE2=  1.000000  1.000000
 IRadAn=      0 IRanWt=     -1 IRanGd=            0 ICorTp=0 IEmpDi=  4
 NAtoms=    1 NActive=    1 NUniq=    1 SFac= 1.00D+00 NAtFMM=   60 NAOKFM=F Big=F
 Integral buffers will be    131072 words long.
 Raffenetti 2 integral format.
 Two-electron integral symmetry is turned on.
 Leave Link  301 at Sat Dec 10 19:56:08 2016, MaxMem=  6710886400 cpu:         2.8
 (Enter /ssoft/gaussian/g09-D.01/RH6/x86_E5v2/x86/g09/l302.exe)
 NPDir=0 NMtPBC=     1 NCelOv=     1 NCel=       1 NClECP=     1 NCelD=      1
         NCelK=      1 NCelE2=     1 NClLst=     1 CellRange=     0.0.
 One-electron integrals computed using PRISM.
 NBasis=    30 RedAO= T EigKep=  1.26D-01  NBF=     8     2     2     2     1     5     5     5
 NBsUse=    30 1.00D-06 EigRej= -1.00D+00 NBFU=     8     2     2     2     1     5     5     5
 Precomputing XC quadrature grid using
 IXCGrd= 4 IRadAn=           0 IRanWt=          -1 IRanGd=           0 AccXCQ= 0.00D+00.
 Generated NRdTot=       0 NPtTot=           0 NUsed=           0 NTot=          32
 NSgBfM=    35    35    35    35    35 MxSgAt=     1 MxSgA2=     1.
 Leave Link  302 at Sat Dec 10 19:56:09 2016, MaxMem=  6710886400 cpu:        15.5
 (Enter /ssoft/gaussian/g09-D.01/RH6/x86_E5v2/x86/g09/l303.exe)
 DipDrv:  MaxL=1.
 Leave Link  303 at Sat Dec 10 19:56:09 2016, MaxMem=  6710886400 cpu:         3.2
 (Enter /ssoft/gaussian/g09-D.01/RH6/x86_E5v2/x86/g09/l401.exe)
 ExpMin= 1.83D-01 ExpMax= 5.29D+02 ExpMxC= 7.93D+01 IAcc=1 IRadAn=         1 AccDes= 0.00D+00
 Harris functional with IExCor=  203 and IRadAn=       1 diagonalized for initial guess.
 HarFok:  IExCor=  203 AccDes= 0.00D+00 IRadAn=         1 IDoV= 1 UseB2=F ITyADJ=14
 ICtDFT=  3500011 ScaDFX=  1.000000  1.000000  1.000000  1.000000
 FoFCou: FMM=F IPFlag=           0 FMFlag=      100000 FMFlg1=           0
         NFxFlg=           0 DoJE=T BraDBF=F KetDBF=T FulRan=T
         wScrn=  0.000000 ICntrl=     500 IOpCl=  0 I1Cent=   200000004 NGrid=           0
         NMat0=    1 NMatS0=      1 NMatT0=    0 NMatD0=    1 NMtDS0=    0 NMtDT0=    0
 Petite list used in FoFCou.
 Harris En= -2.83409390050988    
 JPrj=0 DoOrth=F DoCkMO=F.
 Initial guess orbital symmetries:
       Occupied  (A1G)
       Virtual   (A1G) (T1U) (T1U) (T1U) (A1G) (EG) (EG) (T2G)
                 (T2G) (T2G) (T1U) (T1U) (T1U) (T1U) (T1U) (T1U)
                 (T2U) (A2U) (T2U) (T2U) (A1G) (EG) (EG) (T2G)
                 (T2G) (T2G) (T1U) (T1U) (T1U)
 The electronic state of the initial guess is 1-A1G.
 Leave Link  401 at Sat Dec 10 19:56:10 2016, MaxMem=  6710886400 cpu:        19.5
 (Enter /ssoft/gaussian/g09-D.01/RH6/x86_E5v2/x86/g09/l502.exe)
 Closed shell SCF:
 Using DIIS extrapolation, IDIIS=  1040.
 Integral symmetry usage will be decided dynamically.
 Keep J ints in memory in symmetry-blocked form, NReq=2080504.
 IVT=       23815 IEndB=       23815 NGot=  6710886400 MDV=  6710843955
 LenX=  6710843955 LenY=  6710842289
 Requested convergence on RMS density matrix=1.00D-08 within 128 cycles.
 Requested convergence on MAX density matrix=1.00D-06.
 Requested convergence on             energy=1.00D-06.
 No special actions if energy rises.
 FoFCou: FMM=F IPFlag=           0 FMFlag=           0 FMFlg1=           0
         NFxFlg=           0 DoJE=F BraDBF=F KetDBF=F FulRan=T
         wScrn=  0.000000 ICntrl=     600 IOpCl=  0 I1Cent=           0 NGrid=           0
         NMat0=    1 NMatS0=    465 NMatT0=    0 NMatD0=    1 NMtDS0=    0 NMtDT0=    0
 Petite list used in FoFCou.
 Integral accuracy reduced to 1.0D-05 until final iterations.

 Cycle   1  Pass 0  IDiag  1:
 E= -2.83388034121497    
 DIIS: error= 6.55D-03 at cycle   1 NSaved=   1.
 NSaved= 1 IEnMin= 1 EnMin= -2.83388034121497     IErMin= 1 ErrMin= 6.55D-03
 ErrMax= 6.55D-03  0.00D+00 EMaxC= 1.00D-01 BMatC= 1.76D-04 BMatP= 1.76D-04
 IDIUse=3 WtCom= 9.34D-01 WtEn= 6.55D-02
 Coeff-Com:  0.100D+01
 Coeff-En:   0.100D+01
 Coeff:      0.100D+01
 Gap=     0.921 Goal=   None    Shift=    0.000
 GapD=    0.921 DampG=2.000 DampE=1.000 DampFc=2.0000 IDamp=-1.
 RMSDP=3.89D-04 MaxDP=6.71D-03              OVMax= 9.38D-03

 Cycle   2  Pass 0  IDiag  1:
 E= -2.83399595576879     Delta-E=       -0.000115614554 Rises=F Damp=F
 DIIS: error= 2.73D-03 at cycle   2 NSaved=   2.
 NSaved= 2 IEnMin= 2 EnMin= -2.83399595576879     IErMin= 2 ErrMin= 2.73D-03
 ErrMax= 2.73D-03  0.00D+00 EMaxC= 1.00D-01 BMatC= 3.03D-05 BMatP= 1.76D-04
 IDIUse=3 WtCom= 9.73D-01 WtEn= 2.73D-02
 Coeff-Com:  0.292D+00 0.708D+00
 Coeff-En:   0.000D+00 0.100D+01
 Coeff:      0.284D+00 0.716D+00
 Gap=     0.917 Goal=   None    Shift=    0.000
 RMSDP=1.08D-04 MaxDP=1.82D-03 DE=-1.16D-04 OVMax= 2.76D-03

 Cycle   3  Pass 0  IDiag  1:
 E= -2.83402057520864     Delta-E=       -0.000024619440 Rises=F Damp=F
 DIIS: error= 4.59D-05 at cycle   3 NSaved=   3.
 NSaved= 3 IEnMin= 3 EnMin= -2.83402057520864     IErMin= 3 ErrMin= 4.59D-05
 ErrMax= 4.59D-05  0.00D+00 EMaxC= 1.00D-01 BMatC= 8.71D-09 BMatP= 3.03D-05
 IDIUse=1 WtCom= 1.00D+00 WtEn= 0.00D+00
 Coeff-Com: -0.697D-02 0.260D-03 0.101D+01
 Coeff:     -0.697D-02 0.260D-03 0.101D+01
 Gap=     0.918 Goal=   None    Shift=    0.000
 RMSDP=1.91D-06 MaxDP=3.26D-05 DE=-2.46D-05 OVMax= 4.55D-05

 Initial convergence to 1.0D-05 achieved.  Increase integral accuracy.
 Cycle   4  Pass 1  IDiag  1:
 E= -2.83401647907921     Delta-E=        0.000004096129 Rises=F Damp=F
 DIIS: error= 7.14D-07 at cycle   1 NSaved=   1.
 NSaved= 1 IEnMin= 1 EnMin= -2.83401647907921     IErMin= 1 ErrMin= 7.14D-07
 ErrMax= 7.14D-07  0.00D+00 EMaxC= 1.00D-01 BMatC= 3.57D-12 BMatP= 3.57D-12
 IDIUse=1 WtCom= 1.00D+00 WtEn= 0.00D+00
 Coeff-Com:  0.100D+01
 Coeff:      0.100D+01
 Gap=     0.918 Goal=   None    Shift=    0.000
 RMSDP=1.91D-06 MaxDP=3.26D-05 DE= 4.10D-06 OVMax= 4.59D-07

 Cycle   5  Pass 1  IDiag  1:
 E= -2.83401647908000     Delta-E=       -0.000000000001 Rises=F Damp=F
 DIIS: error= 9.26D-08 at cycle   2 NSaved=   2.
 NSaved= 2 IEnMin= 2 EnMin= -2.83401647908000     IErMin= 2 ErrMin= 9.26D-08
 ErrMax= 9.26D-08  0.00D+00 EMaxC= 1.00D-01 BMatC= 3.47D-14 BMatP= 3.57D-12
 IDIUse=1 WtCom= 1.00D+00 WtEn= 0.00D+00
 Coeff-Com: -0.102D-01 0.101D+01
 Coeff:     -0.102D-01 0.101D+01
 Gap=     0.918 Goal=   None    Shift=    0.000
 RMSDP=5.31D-09 MaxDP=9.08D-08 DE=-7.86D-13 OVMax= 1.33D-07

 SCF Done:  E(RS-P81) =  -2.83401647908     A.U. after    5 cycles
            NFock=  5  Conv=0.53D-08     -V/T= 2.0238
 KE= 2.768051661035D+00 PE=-6.626188980592D+00 EE= 1.024120840476D+00
 Leave Link  502 at Sat Dec 10 19:56:12 2016, MaxMem=  6710886400 cpu:        34.5
 (Enter /ssoft/gaussian/g09-D.01/RH6/x86_E5v2/x86/g09/l601.exe)
 Copying SCF densities to generalized density rwf, IOpCl= 0 IROHF=0.

 **********************************************************************

            Population analysis using the SCF density.

 **********************************************************************

 Orbital symmetries:
       Occupied  (A1G)
       Virtual   (A1G) (T1U) (T1U) (T1U) (A1G) (EG) (EG) (T2G)
                 (T2G) (T2G) (T1U) (T1U) (T1U) (?A) (?A) (?A) (?A)
                 (A2U) (?A) (?A) (A1G) (EG) (EG) (T2G) (T2G) (T2G)
                 (T1U) (T1U) (T1U)
 The electronic state is 1-A1G.
 Alpha  occ. eigenvalues --   -0.56923
 Alpha virt. eigenvalues --    0.34835   0.82337   0.82337   0.82337   2.40015
 Alpha virt. eigenvalues --    3.48350   3.48350   3.48350   3.48350   3.48350
 Alpha virt. eigenvalues --    4.29104   4.29104   4.29104  11.02177  11.02177
 Alpha virt. eigenvalues --   11.02177  11.02177  11.02177  11.02177  11.02177
 Alpha virt. eigenvalues --   12.61838  15.46966  15.46966  15.46966  15.46966
 Alpha virt. eigenvalues --   15.46966  16.99183  16.99183  16.99183
     Molecular Orbital Coefficients:
                           1         2         3         4         5
                       (A1G)--O  (A1G)--V  (T1U)--V  (T1U)--V  (T1U)--V
     Eigenvalues --    -0.56923   0.34835   0.82337   0.82337   0.82337
   1 1   He 1S          0.16010  -0.12041   0.00000   0.00000   0.00000
   2        2S          0.30087  -0.03292   0.00000   0.00000   0.00000
   3        3S          0.42366  -1.26224   0.00000   0.00000   0.00000
   4        4S          0.28306   1.64222   0.00000   0.00000   0.00000
   5        5PX         0.00000   0.00000   0.00000   0.00000   0.04176
   6        5PY         0.00000   0.00000   0.04176   0.00000   0.00000
   7        5PZ         0.00000   0.00000   0.00000   0.04176   0.00000
   8        6PX         0.00000   0.00000   0.00000   0.00000  -0.14576
   9        6PY         0.00000   0.00000  -0.14576   0.00000   0.00000
  10        6PZ         0.00000   0.00000   0.00000  -0.14576   0.00000
  11        7PX         0.00000   0.00000   0.00000   0.00000   1.08595
  12        7PY         0.00000   0.00000   1.08595   0.00000   0.00000
  13        7PZ         0.00000   0.00000   0.00000   1.08595   0.00000
  14        8D 0        0.00000   0.00000   0.00000   0.00000   0.00000
  15        8D+1        0.00000   0.00000   0.00000   0.00000   0.00000
  16        8D-1        0.00000   0.00000   0.00000   0.00000   0.00000
  17        8D+2        0.00000   0.00000   0.00000   0.00000   0.00000
  18        8D-2        0.00000   0.00000   0.00000   0.00000   0.00000
  19        9D 0        0.00000   0.00000   0.00000   0.00000   0.00000
  20        9D+1        0.00000   0.00000   0.00000   0.00000   0.00000
  21        9D-1        0.00000   0.00000   0.00000   0.00000   0.00000
  22        9D+2        0.00000   0.00000   0.00000   0.00000   0.00000
  23        9D-2        0.00000   0.00000   0.00000   0.00000   0.00000
  24       10F 0        0.00000   0.00000   0.00000   0.00000   0.00000
  25       10F+1        0.00000   0.00000   0.00000   0.00000   0.00000
  26       10F-1        0.00000   0.00000   0.00000   0.00000   0.00000
  27       10F+2        0.00000   0.00000   0.00000   0.00000   0.00000
  28       10F-2        0.00000   0.00000   0.00000   0.00000   0.00000
  29       10F+3        0.00000   0.00000   0.00000   0.00000   0.00000
  30       10F-3        0.00000   0.00000   0.00000   0.00000   0.00000
                           6         7         8         9        10
                       (A1G)--V   (EG)--V   (EG)--V  (T2G)--V  (T2G)--V
     Eigenvalues --     2.40015   3.48350   3.48350   3.48350   3.48350
   1 1   He 1S         -0.11173   0.00000   0.00000   0.00000   0.00000
   2        2S         -1.76484   0.00000   0.00000   0.00000   0.00000
   3        3S          2.68321   0.00000   0.00000   0.00000   0.00000
   4        4S         -1.16869   0.00000   0.00000   0.00000   0.00000
   5        5PX         0.00000   0.00000   0.00000   0.00000   0.00000
   6        5PY         0.00000   0.00000   0.00000   0.00000   0.00000
   7        5PZ         0.00000   0.00000   0.00000   0.00000   0.00000
   8        6PX         0.00000   0.00000   0.00000   0.00000   0.00000
   9        6PY         0.00000   0.00000   0.00000   0.00000   0.00000
  10        6PZ         0.00000   0.00000   0.00000   0.00000   0.00000
  11        7PX         0.00000   0.00000   0.00000   0.00000   0.00000
  12        7PY         0.00000   0.00000   0.00000   0.00000   0.00000
  13        7PZ         0.00000   0.00000   0.00000   0.00000   0.00000
  14        8D 0        0.00000  -0.09794  -0.03104   0.00000   0.00000
  15        8D+1        0.00000   0.00000   0.00000   0.00000   0.00000
  16        8D-1        0.00000   0.00000   0.00000   0.00000  -0.10274
  17        8D+2        0.00000   0.03104  -0.09794   0.00000   0.00000
  18        8D-2        0.00000   0.00000   0.00000  -0.10274   0.00000
  19        9D 0        0.00000   1.00073   0.31713   0.00000   0.00000
  20        9D+1        0.00000   0.00000   0.00000   0.00000   0.00000
  21        9D-1        0.00000   0.00000   0.00000   0.00000   1.04978
  22        9D+2        0.00000  -0.31713   1.00073   0.00000   0.00000
  23        9D-2        0.00000   0.00000   0.00000   1.04978   0.00000
  24       10F 0        0.00000   0.00000   0.00000   0.00000   0.00000
  25       10F+1        0.00000   0.00000   0.00000   0.00000   0.00000
  26       10F-1        0.00000   0.00000   0.00000   0.00000   0.00000
  27       10F+2        0.00000   0.00000   0.00000   0.00000   0.00000
  28       10F-2        0.00000   0.00000   0.00000   0.00000   0.00000
  29       10F+3        0.00000   0.00000   0.00000   0.00000   0.00000
  30       10F-3        0.00000   0.00000   0.00000   0.00000   0.00000
                          11        12        13        14        15
                       (T2G)--V  (T1U)--V  (T1U)--V  (T1U)--V      V
     Eigenvalues --     3.48350   4.29104   4.29104   4.29104  11.02177
   1 1   He 1S          0.00000   0.00000   0.00000   0.00000   0.00000
   2        2S          0.00000   0.00000   0.00000   0.00000   0.00000
   3        3S          0.00000   0.00000   0.00000   0.00000   0.00000
   4        4S          0.00000   0.00000   0.00000   0.00000   0.00000
   5        5PX         0.00000   0.00000  -0.10371   0.00000   0.00000
   6        5PY         0.00000   0.00000   0.00000  -0.10371   0.00000
   7        5PZ         0.00000  -0.10371   0.00000   0.00000   0.00000
   8        6PX         0.00000   0.00000   1.45067   0.00000   0.00000
   9        6PY         0.00000   0.00000   0.00000   1.45067   0.00000
  10        6PZ         0.00000   1.45067   0.00000   0.00000   0.00000
  11        7PX         0.00000   0.00000  -0.88281   0.00000   0.00000
  12        7PY         0.00000   0.00000   0.00000  -0.88281   0.00000
  13        7PZ         0.00000  -0.88281   0.00000   0.00000   0.00000
  14        8D 0        0.00000   0.00000   0.00000   0.00000   0.00000
  15        8D+1       -0.10274   0.00000   0.00000   0.00000   0.00000
  16        8D-1        0.00000   0.00000   0.00000   0.00000   0.00000
  17        8D+2        0.00000   0.00000   0.00000   0.00000   0.00000
  18        8D-2        0.00000   0.00000   0.00000   0.00000   0.00000
  19        9D 0        0.00000   0.00000   0.00000   0.00000   0.00000
  20        9D+1        1.04978   0.00000   0.00000   0.00000   0.00000
  21        9D-1        0.00000   0.00000   0.00000   0.00000   0.00000
  22        9D+2        0.00000   0.00000   0.00000   0.00000   0.00000
  23        9D-2        0.00000   0.00000   0.00000   0.00000   0.00000
  24       10F 0        0.00000   0.00000   0.00000   0.00000   0.98099
  25       10F+1        0.00000   0.00000   0.00000   0.00000   0.00000
  26       10F-1        0.00000   0.00000   0.00000   0.00000   0.00000
  27       10F+2        0.00000   0.00000   0.00000   0.00000  -0.19404
  28       10F-2        0.00000   0.00000   0.00000   0.00000   0.00000
  29       10F+3        0.00000   0.00000   0.00000   0.00000   0.00000
  30       10F-3        0.00000   0.00000   0.00000   0.00000   0.00000
                          16        17        18        19        20
                           V         V         V     (A2U)--V      V
     Eigenvalues --    11.02177  11.02177  11.02177  11.02177  11.02177
   1 1   He 1S          0.00000   0.00000   0.00000   0.00000   0.00000
   2        2S          0.00000   0.00000   0.00000   0.00000   0.00000
   3        3S          0.00000   0.00000   0.00000   0.00000   0.00000
   4        4S          0.00000   0.00000   0.00000   0.00000   0.00000
   5        5PX         0.00000   0.00000   0.00000   0.00000   0.00000
   6        5PY         0.00000   0.00000   0.00000   0.00000   0.00000
   7        5PZ         0.00000   0.00000   0.00000   0.00000   0.00000
   8        6PX         0.00000   0.00000   0.00000   0.00000   0.00000
   9        6PY         0.00000   0.00000   0.00000   0.00000   0.00000
  10        6PZ         0.00000   0.00000   0.00000   0.00000   0.00000
  11        7PX         0.00000   0.00000   0.00000   0.00000   0.00000
  12        7PY         0.00000   0.00000   0.00000   0.00000   0.00000
  13        7PZ         0.00000   0.00000   0.00000   0.00000   0.00000
  14        8D 0        0.00000   0.00000   0.00000   0.00000   0.00000
  15        8D+1        0.00000   0.00000   0.00000   0.00000   0.00000
  16        8D-1        0.00000   0.00000   0.00000   0.00000   0.00000
  17        8D+2        0.00000   0.00000   0.00000   0.00000   0.00000
  18        8D-2        0.00000   0.00000   0.00000   0.00000   0.00000
  19        9D 0        0.00000   0.00000   0.00000   0.00000   0.00000
  20        9D+1        0.00000   0.00000   0.00000   0.00000   0.00000
  21        9D-1        0.00000   0.00000   0.00000   0.00000   0.00000
  22        9D+2        0.00000   0.00000   0.00000   0.00000   0.00000
  23        9D-2        0.00000   0.00000   0.00000   0.00000   0.00000
  24       10F 0        0.00000   0.00000   0.19404   0.00000   0.00000
  25       10F+1        0.81968   0.00000   0.00000   0.00000   0.00000
  26       10F-1        0.00000   0.59632   0.00000   0.00000   0.80275
  27       10F+2        0.00000   0.00000   0.98099   0.00000   0.00000
  28       10F-2        0.00000   0.00000   0.00000   1.00000   0.00000
  29       10F+3       -0.57283   0.00000   0.00000   0.00000   0.00000
  30       10F-3        0.00000   0.80275   0.00000   0.00000  -0.59632
                          21        22        23        24        25
                           V     (A1G)--V   (EG)--V   (EG)--V  (T2G)--V
     Eigenvalues --    11.02177  12.61838  15.46966  15.46966  15.46966
   1 1   He 1S          0.00000  -1.67656   0.00000   0.00000   0.00000
   2        2S          0.00000   2.39711   0.00000   0.00000   0.00000
   3        3S          0.00000  -1.61815   0.00000   0.00000   0.00000
   4        4S          0.00000   0.54295   0.00000   0.00000   0.00000
   5        5PX         0.00000   0.00000   0.00000   0.00000   0.00000
   6        5PY         0.00000   0.00000   0.00000   0.00000   0.00000
   7        5PZ         0.00000   0.00000   0.00000   0.00000   0.00000
   8        6PX         0.00000   0.00000   0.00000   0.00000   0.00000
   9        6PY         0.00000   0.00000   0.00000   0.00000   0.00000
  10        6PZ         0.00000   0.00000   0.00000   0.00000   0.00000
  11        7PX         0.00000   0.00000   0.00000   0.00000   0.00000
  12        7PY         0.00000   0.00000   0.00000   0.00000   0.00000
  13        7PZ         0.00000   0.00000   0.00000   0.00000   0.00000
  14        8D 0        0.00000   0.00000   1.04070   0.53000   0.00000
  15        8D+1        0.00000   0.00000   0.00000   0.00000   0.00000
  16        8D-1        0.00000   0.00000   0.00000   0.00000   1.16788
  17        8D+2        0.00000   0.00000  -0.53000   1.04070   0.00000
  18        8D-2        0.00000   0.00000   0.00000   0.00000   0.00000
  19        9D 0        0.00000   0.00000  -0.46514  -0.23688   0.00000
  20        9D+1        0.00000   0.00000   0.00000   0.00000   0.00000
  21        9D-1        0.00000   0.00000   0.00000   0.00000  -0.52199
  22        9D+2        0.00000   0.00000   0.23688  -0.46514   0.00000
  23        9D-2        0.00000   0.00000   0.00000   0.00000   0.00000
  24       10F 0        0.00000   0.00000   0.00000   0.00000   0.00000
  25       10F+1        0.57283   0.00000   0.00000   0.00000   0.00000
  26       10F-1        0.00000   0.00000   0.00000   0.00000   0.00000
  27       10F+2        0.00000   0.00000   0.00000   0.00000   0.00000
  28       10F-2        0.00000   0.00000   0.00000   0.00000   0.00000
  29       10F+3        0.81968   0.00000   0.00000   0.00000   0.00000
  30       10F-3        0.00000   0.00000   0.00000   0.00000   0.00000
                          26        27        28        29        30
                       (T2G)--V  (T2G)--V  (T1U)--V  (T1U)--V  (T1U)--V
     Eigenvalues --    15.46966  15.46966  16.99183  16.99183  16.99183
   1 1   He 1S          0.00000   0.00000   0.00000   0.00000   0.00000
   2        2S          0.00000   0.00000   0.00000   0.00000   0.00000
   3        3S          0.00000   0.00000   0.00000   0.00000   0.00000
   4        4S          0.00000   0.00000   0.00000   0.00000   0.00000
   5        5PX         0.00000   0.00000   0.00000   0.00000   1.38706
   6        5PY         0.00000   0.00000   1.38706   0.00000   0.00000
   7        5PZ         0.00000   0.00000   0.00000   1.38706   0.00000
   8        6PX         0.00000   0.00000   0.00000   0.00000  -1.13636
   9        6PY         0.00000   0.00000  -1.13636   0.00000   0.00000
  10        6PZ         0.00000   0.00000   0.00000  -1.13636   0.00000
  11        7PX         0.00000   0.00000   0.00000   0.00000   0.42618
  12        7PY         0.00000   0.00000   0.42618   0.00000   0.00000
  13        7PZ         0.00000   0.00000   0.00000   0.42618   0.00000
  14        8D 0        0.00000   0.00000   0.00000   0.00000   0.00000
  15        8D+1        0.00000   1.16788   0.00000   0.00000   0.00000
  16        8D-1        0.00000   0.00000   0.00000   0.00000   0.00000
  17        8D+2        0.00000   0.00000   0.00000   0.00000   0.00000
  18        8D-2        1.16788   0.00000   0.00000   0.00000   0.00000
  19        9D 0        0.00000   0.00000   0.00000   0.00000   0.00000
  20        9D+1        0.00000  -0.52199   0.00000   0.00000   0.00000
  21        9D-1        0.00000   0.00000   0.00000   0.00000   0.00000
  22        9D+2        0.00000   0.00000   0.00000   0.00000   0.00000
  23        9D-2       -0.52199   0.00000   0.00000   0.00000   0.00000
  24       10F 0        0.00000   0.00000   0.00000   0.00000   0.00000
  25       10F+1        0.00000   0.00000   0.00000   0.00000   0.00000
  26       10F-1        0.00000   0.00000   0.00000   0.00000   0.00000
  27       10F+2        0.00000   0.00000   0.00000   0.00000   0.00000
  28       10F-2        0.00000   0.00000   0.00000   0.00000   0.00000
  29       10F+3        0.00000   0.00000   0.00000   0.00000   0.00000
  30       10F-3        0.00000   0.00000   0.00000   0.00000   0.00000
     Density Matrix:
                           1         2         3         4         5
   1 1   He 1S          0.05126
   2        2S          0.09634   0.18105
   3        3S          0.13565   0.25493   0.35897
   4        4S          0.09063   0.17033   0.23984   0.16024
   5        5PX         0.00000   0.00000   0.00000   0.00000   0.00000
   6        5PY         0.00000   0.00000   0.00000   0.00000   0.00000
   7        5PZ         0.00000   0.00000   0.00000   0.00000   0.00000
   8        6PX         0.00000   0.00000   0.00000   0.00000   0.00000
   9        6PY         0.00000   0.00000   0.00000   0.00000   0.00000
  10        6PZ         0.00000   0.00000   0.00000   0.00000   0.00000
  11        7PX         0.00000   0.00000   0.00000   0.00000   0.00000
  12        7PY         0.00000   0.00000   0.00000   0.00000   0.00000
  13        7PZ         0.00000   0.00000   0.00000   0.00000   0.00000
  14        8D 0        0.00000   0.00000   0.00000   0.00000   0.00000
  15        8D+1        0.00000   0.00000   0.00000   0.00000   0.00000
  16        8D-1        0.00000   0.00000   0.00000   0.00000   0.00000
  17        8D+2        0.00000   0.00000   0.00000   0.00000   0.00000
  18        8D-2        0.00000   0.00000   0.00000   0.00000   0.00000
  19        9D 0        0.00000   0.00000   0.00000   0.00000   0.00000
  20        9D+1        0.00000   0.00000   0.00000   0.00000   0.00000
  21        9D-1        0.00000   0.00000   0.00000   0.00000   0.00000
  22        9D+2        0.00000   0.00000   0.00000   0.00000   0.00000
  23        9D-2        0.00000   0.00000   0.00000   0.00000   0.00000
  24       10F 0        0.00000   0.00000   0.00000   0.00000   0.00000
  25       10F+1        0.00000   0.00000   0.00000   0.00000   0.00000
  26       10F-1        0.00000   0.00000   0.00000   0.00000   0.00000
  27       10F+2        0.00000   0.00000   0.00000   0.00000   0.00000
  28       10F-2        0.00000   0.00000   0.00000   0.00000   0.00000
  29       10F+3        0.00000   0.00000   0.00000   0.00000   0.00000
  30       10F-3        0.00000   0.00000   0.00000   0.00000   0.00000
                           6         7         8         9        10
   6        5PY         0.00000
   7        5PZ         0.00000   0.00000
   8        6PX         0.00000   0.00000   0.00000
   9        6PY         0.00000   0.00000   0.00000   0.00000
  10        6PZ         0.00000   0.00000   0.00000   0.00000   0.00000
  11        7PX         0.00000   0.00000   0.00000   0.00000   0.00000
  12        7PY         0.00000   0.00000   0.00000   0.00000   0.00000
  13        7PZ         0.00000   0.00000   0.00000   0.00000   0.00000
  14        8D 0        0.00000   0.00000   0.00000   0.00000   0.00000
  15        8D+1        0.00000   0.00000   0.00000   0.00000   0.00000
  16        8D-1        0.00000   0.00000   0.00000   0.00000   0.00000
  17        8D+2        0.00000   0.00000   0.00000   0.00000   0.00000
  18        8D-2        0.00000   0.00000   0.00000   0.00000   0.00000
  19        9D 0        0.00000   0.00000   0.00000   0.00000   0.00000
  20        9D+1        0.00000   0.00000   0.00000   0.00000   0.00000
  21        9D-1        0.00000   0.00000   0.00000   0.00000   0.00000
  22        9D+2        0.00000   0.00000   0.00000   0.00000   0.00000
  23        9D-2        0.00000   0.00000   0.00000   0.00000   0.00000
  24       10F 0        0.00000   0.00000   0.00000   0.00000   0.00000
  25       10F+1        0.00000   0.00000   0.00000   0.00000   0.00000
  26       10F-1        0.00000   0.00000   0.00000   0.00000   0.00000
  27       10F+2        0.00000   0.00000   0.00000   0.00000   0.00000
  28       10F-2        0.00000   0.00000   0.00000   0.00000   0.00000
  29       10F+3        0.00000   0.00000   0.00000   0.00000   0.00000
  30       10F-3        0.00000   0.00000   0.00000   0.00000   0.00000
                          11        12        13        14        15
  11        7PX         0.00000
  12        7PY         0.00000   0.00000
  13        7PZ         0.00000   0.00000   0.00000
  14        8D 0        0.00000   0.00000   0.00000   0.00000
  15        8D+1        0.00000   0.00000   0.00000   0.00000   0.00000
  16        8D-1        0.00000   0.00000   0.00000   0.00000   0.00000
  17        8D+2        0.00000   0.00000   0.00000   0.00000   0.00000
  18        8D-2        0.00000   0.00000   0.00000   0.00000   0.00000
  19        9D 0        0.00000   0.00000   0.00000   0.00000   0.00000
  20        9D+1        0.00000   0.00000   0.00000   0.00000   0.00000
  21        9D-1        0.00000   0.00000   0.00000   0.00000   0.00000
  22        9D+2        0.00000   0.00000   0.00000   0.00000   0.00000
  23        9D-2        0.00000   0.00000   0.00000   0.00000   0.00000
  24       10F 0        0.00000   0.00000   0.00000   0.00000   0.00000
  25       10F+1        0.00000   0.00000   0.00000   0.00000   0.00000
  26       10F-1        0.00000   0.00000   0.00000   0.00000   0.00000
  27       10F+2        0.00000   0.00000   0.00000   0.00000   0.00000
  28       10F-2        0.00000   0.00000   0.00000   0.00000   0.00000
  29       10F+3        0.00000   0.00000   0.00000   0.00000   0.00000
  30       10F-3        0.00000   0.00000   0.00000   0.00000   0.00000
                          16        17        18        19        20
  16        8D-1        0.00000
  17        8D+2        0.00000   0.00000
  18        8D-2        0.00000   0.00000   0.00000
  19        9D 0        0.00000   0.00000   0.00000   0.00000
  20        9D+1        0.00000   0.00000   0.00000   0.00000   0.00000
  21        9D-1        0.00000   0.00000   0.00000   0.00000   0.00000
  22        9D+2        0.00000   0.00000   0.00000   0.00000   0.00000
  23        9D-2        0.00000   0.00000   0.00000   0.00000   0.00000
  24       10F 0        0.00000   0.00000   0.00000   0.00000   0.00000
  25       10F+1        0.00000   0.00000   0.00000   0.00000   0.00000
  26       10F-1        0.00000   0.00000   0.00000   0.00000   0.00000
  27       10F+2        0.00000   0.00000   0.00000   0.00000   0.00000
  28       10F-2        0.00000   0.00000   0.00000   0.00000   0.00000
  29       10F+3        0.00000   0.00000   0.00000   0.00000   0.00000
  30       10F-3        0.00000   0.00000   0.00000   0.00000   0.00000
                          21        22        23        24        25
  21        9D-1        0.00000
  22        9D+2        0.00000   0.00000
  23        9D-2        0.00000   0.00000   0.00000
  24       10F 0        0.00000   0.00000   0.00000   0.00000
  25       10F+1        0.00000   0.00000   0.00000   0.00000   0.00000
  26       10F-1        0.00000   0.00000   0.00000   0.00000   0.00000
  27       10F+2        0.00000   0.00000   0.00000   0.00000   0.00000
  28       10F-2        0.00000   0.00000   0.00000   0.00000   0.00000
  29       10F+3        0.00000   0.00000   0.00000   0.00000   0.00000
  30       10F-3        0.00000   0.00000   0.00000   0.00000   0.00000
                          26        27        28        29        30
  26       10F-1        0.00000
  27       10F+2        0.00000   0.00000
  28       10F-2        0.00000   0.00000   0.00000
  29       10F+3        0.00000   0.00000   0.00000   0.00000
  30       10F-3        0.00000   0.00000   0.00000   0.00000   0.00000
    Full Mulliken population analysis:
                           1         2         3         4         5
   1 1   He 1S          0.05126
   2        2S          0.07023   0.18105
   3        3S          0.05511   0.20545   0.35897
   4        4S          0.01800   0.08035   0.19510   0.16024
   5        5PX         0.00000   0.00000   0.00000   0.00000   0.00000
   6        5PY         0.00000   0.00000   0.00000   0.00000   0.00000
   7        5PZ         0.00000   0.00000   0.00000   0.00000   0.00000
   8        6PX         0.00000   0.00000   0.00000   0.00000   0.00000
   9        6PY         0.00000   0.00000   0.00000   0.00000   0.00000
  10        6PZ         0.00000   0.00000   0.00000   0.00000   0.00000
  11        7PX         0.00000   0.00000   0.00000   0.00000   0.00000
  12        7PY         0.00000   0.00000   0.00000   0.00000   0.00000
  13        7PZ         0.00000   0.00000   0.00000   0.00000   0.00000
  14        8D 0        0.00000   0.00000   0.00000   0.00000   0.00000
  15        8D+1        0.00000   0.00000   0.00000   0.00000   0.00000
  16        8D-1        0.00000   0.00000   0.00000   0.00000   0.00000
  17        8D+2        0.00000   0.00000   0.00000   0.00000   0.00000
  18        8D-2        0.00000   0.00000   0.00000   0.00000   0.00000
  19        9D 0        0.00000   0.00000   0.00000   0.00000   0.00000
  20        9D+1        0.00000   0.00000   0.00000   0.00000   0.00000
  21        9D-1        0.00000   0.00000   0.00000   0.00000   0.00000
  22        9D+2        0.00000   0.00000   0.00000   0.00000   0.00000
  23        9D-2        0.00000   0.00000   0.00000   0.00000   0.00000
  24       10F 0        0.00000   0.00000   0.00000   0.00000   0.00000
  25       10F+1        0.00000   0.00000   0.00000   0.00000   0.00000
  26       10F-1        0.00000   0.00000   0.00000   0.00000   0.00000
  27       10F+2        0.00000   0.00000   0.00000   0.00000   0.00000
  28       10F-2        0.00000   0.00000   0.00000   0.00000   0.00000
  29       10F+3        0.00000   0.00000   0.00000   0.00000   0.00000
  30       10F-3        0.00000   0.00000   0.00000   0.00000   0.00000
                           6         7         8         9        10
   6        5PY         0.00000
   7        5PZ         0.00000   0.00000
   8        6PX         0.00000   0.00000   0.00000
   9        6PY         0.00000   0.00000   0.00000   0.00000
  10        6PZ         0.00000   0.00000   0.00000   0.00000   0.00000
  11        7PX         0.00000   0.00000   0.00000   0.00000   0.00000
  12        7PY         0.00000   0.00000   0.00000   0.00000   0.00000
  13        7PZ         0.00000   0.00000   0.00000   0.00000   0.00000
  14        8D 0        0.00000   0.00000   0.00000   0.00000   0.00000
  15        8D+1        0.00000   0.00000   0.00000   0.00000   0.00000
  16        8D-1        0.00000   0.00000   0.00000   0.00000   0.00000
  17        8D+2        0.00000   0.00000   0.00000   0.00000   0.00000
  18        8D-2        0.00000   0.00000   0.00000   0.00000   0.00000
  19        9D 0        0.00000   0.00000   0.00000   0.00000   0.00000
  20        9D+1        0.00000   0.00000   0.00000   0.00000   0.00000
  21        9D-1        0.00000   0.00000   0.00000   0.00000   0.00000
  22        9D+2        0.00000   0.00000   0.00000   0.00000   0.00000
  23        9D-2        0.00000   0.00000   0.00000   0.00000   0.00000
  24       10F 0        0.00000   0.00000   0.00000   0.00000   0.00000
  25       10F+1        0.00000   0.00000   0.00000   0.00000   0.00000
  26       10F-1        0.00000   0.00000   0.00000   0.00000   0.00000
  27       10F+2        0.00000   0.00000   0.00000   0.00000   0.00000
  28       10F-2        0.00000   0.00000   0.00000   0.00000   0.00000
  29       10F+3        0.00000   0.00000   0.00000   0.00000   0.00000
  30       10F-3        0.00000   0.00000   0.00000   0.00000   0.00000
                          11        12        13        14        15
  11        7PX         0.00000
  12        7PY         0.00000   0.00000
  13        7PZ         0.00000   0.00000   0.00000
  14        8D 0        0.00000   0.00000   0.00000   0.00000
  15        8D+1        0.00000   0.00000   0.00000   0.00000   0.00000
  16        8D-1        0.00000   0.00000   0.00000   0.00000   0.00000
  17        8D+2        0.00000   0.00000   0.00000   0.00000   0.00000
  18        8D-2        0.00000   0.00000   0.00000   0.00000   0.00000
  19        9D 0        0.00000   0.00000   0.00000   0.00000   0.00000
  20        9D+1        0.00000   0.00000   0.00000   0.00000   0.00000
  21        9D-1        0.00000   0.00000   0.00000   0.00000   0.00000
  22        9D+2        0.00000   0.00000   0.00000   0.00000   0.00000
  23        9D-2        0.00000   0.00000   0.00000   0.00000   0.00000
  24       10F 0        0.00000   0.00000   0.00000   0.00000   0.00000
  25       10F+1        0.00000   0.00000   0.00000   0.00000   0.00000
  26       10F-1        0.00000   0.00000   0.00000   0.00000   0.00000
  27       10F+2        0.00000   0.00000   0.00000   0.00000   0.00000
  28       10F-2        0.00000   0.00000   0.00000   0.00000   0.00000
  29       10F+3        0.00000   0.00000   0.00000   0.00000   0.00000
  30       10F-3        0.00000   0.00000   0.00000   0.00000   0.00000
                          16        17        18        19        20
  16        8D-1        0.00000
  17        8D+2        0.00000   0.00000
  18        8D-2        0.00000   0.00000   0.00000
  19        9D 0        0.00000   0.00000   0.00000   0.00000
  20        9D+1        0.00000   0.00000   0.00000   0.00000   0.00000
  21        9D-1        0.00000   0.00000   0.00000   0.00000   0.00000
  22        9D+2        0.00000   0.00000   0.00000   0.00000   0.00000
  23        9D-2        0.00000   0.00000   0.00000   0.00000   0.00000
  24       10F 0        0.00000   0.00000   0.00000   0.00000   0.00000
  25       10F+1        0.00000   0.00000   0.00000   0.00000   0.00000
  26       10F-1        0.00000   0.00000   0.00000   0.00000   0.00000
  27       10F+2        0.00000   0.00000   0.00000   0.00000   0.00000
  28       10F-2        0.00000   0.00000   0.00000   0.00000   0.00000
  29       10F+3        0.00000   0.00000   0.00000   0.00000   0.00000
  30       10F-3        0.00000   0.00000   0.00000   0.00000   0.00000
                          21        22        23        24        25
  21        9D-1        0.00000
  22        9D+2        0.00000   0.00000
  23        9D-2        0.00000   0.00000   0.00000
  24       10F 0        0.00000   0.00000   0.00000   0.00000
  25       10F+1        0.00000   0.00000   0.00000   0.00000   0.00000
  26       10F-1        0.00000   0.00000   0.00000   0.00000   0.00000
  27       10F+2        0.00000   0.00000   0.00000   0.00000   0.00000
  28       10F-2        0.00000   0.00000   0.00000   0.00000   0.00000
  29       10F+3        0.00000   0.00000   0.00000   0.00000   0.00000
  30       10F-3        0.00000   0.00000   0.00000   0.00000   0.00000
                          26        27        28        29        30
  26       10F-1        0.00000
  27       10F+2        0.00000   0.00000
  28       10F-2        0.00000   0.00000   0.00000
  29       10F+3        0.00000   0.00000   0.00000   0.00000
  30       10F-3        0.00000   0.00000   0.00000   0.00000   0.00000
     Gross orbital populations:
                           1
   1 1   He 1S          0.19459
   2        2S          0.53708
   3        3S          0.81463
   4        4S          0.45370
   5        5PX         0.00000
   6        5PY         0.00000
   7        5PZ         0.00000
   8        6PX         0.00000
   9        6PY         0.00000
  10        6PZ         0.00000
  11        7PX         0.00000
  12        7PY         0.00000
  13        7PZ         0.00000
  14        8D 0        0.00000
  15        8D+1        0.00000
  16        8D-1        0.00000
  17        8D+2        0.00000
  18        8D-2        0.00000
  19        9D 0        0.00000
  20        9D+1        0.00000
  21        9D-1        0.00000
  22        9D+2        0.00000
  23        9D-2        0.00000
  24       10F 0        0.00000
  25       10F+1        0.00000
  26       10F-1        0.00000
  27       10F+2        0.00000
  28       10F-2        0.00000
  29       10F+3        0.00000
  30       10F-3        0.00000
          Condensed to atoms (all electrons):
               1
     1  He   2.000000
 Mulliken charges:
               1
     1  He   0.000000
 Sum of Mulliken charges =   0.00000
 Mulliken charges with hydrogens summed into heavy atoms:
               1
     1  He   0.000000
 Electronic spatial extent (au):  <R**2>=              2.5481
 Charge=              0.0000 electrons
 Dipole moment (field-independent basis, Debye):
    X=              0.0000    Y=              0.0000    Z=              0.0000  Tot=              0.0000
 Quadrupole moment (field-independent basis, Debye-Ang):
   XX=             -1.1424   YY=             -1.1424   ZZ=             -1.1424
   XY=              0.0000   XZ=              0.0000   YZ=              0.0000
 Traceless Quadrupole moment (field-independent basis, Debye-Ang):
   XX=              0.0000   YY=              0.0000   ZZ=              0.0000
   XY=              0.0000   XZ=              0.0000   YZ=              0.0000
 Octapole moment (field-independent basis, Debye-Ang**2):
  XXX=              0.0000  YYY=              0.0000  ZZZ=              0.0000  XYY=              0.0000
  XXY=              0.0000  XXZ=              0.0000  XZZ=              0.0000  YZZ=              0.0000
  YYZ=              0.0000  XYZ=              0.0000
 Hexadecapole moment (field-independent basis, Debye-Ang**3):
 XXXX=             -0.6842 YYYY=             -0.6842 ZZZZ=             -0.6842 XXXY=              0.0000
 XXXZ=              0.0000 YYYX=              0.0000 YYYZ=              0.0000 ZZZX=              0.0000
 ZZZY=              0.0000 XXYY=             -0.2281 XXZZ=             -0.2281 YYZZ=             -0.2281
 XXYZ=              0.0000 YYXZ=              0.0000 ZZXY=              0.0000
 N-N= 0.000000000000D+00 E-N=-6.626189157477D+00  KE= 2.768051661035D+00
 Symmetry AG   KE= 2.768051661035D+00
 Symmetry B1G  KE= 1.105061420588D-62
 Symmetry B2G  KE= 8.161919286344D-63
 Symmetry B3G  KE= 1.220549616944D-62
 Symmetry AU   KE= 0.000000000000D+00
 Symmetry B1U  KE= 0.000000000000D+00
 Symmetry B2U  KE= 0.000000000000D+00
 Symmetry B3U  KE= 0.000000000000D+00
 Orbital energies and kinetic energies (alpha):
                                 1                 2
   1         (A1G)--O         -0.569228          1.384026
   2         (A1G)--V          0.348352          1.016818
   3         (T1U)--V          0.823369          1.314337
   4         (T1U)--V          0.823369          1.314337
   5         (T1U)--V          0.823369          1.314337
   6         (A1G)--V          2.400148          4.233211
   7         (EG)--V           3.483500          4.125663
   8         (EG)--V           3.483500          4.125663
   9         (T2G)--V          3.483500          4.125663
  10         (T2G)--V          3.483500          4.125663
  11         (T2G)--V          3.483500          4.125663
  12         (T1U)--V          4.291044          5.544597
  13         (T1U)--V          4.291044          5.544597
  14         (T1U)--V          4.291044          5.544597
  15         V                11.021766         12.060000
  16         V                11.021766         12.060000
  17         V                11.021766         12.060000
  18         V                11.021766         12.060000
  19         (A2U)--V         11.021766         12.060000
  20         V                11.021766         12.060000
  21         V                11.021766         12.060000
  22         (A1G)--V         12.618384         19.757481
  23         (EG)--V          15.469665         17.447314
  24         (EG)--V          15.469665         17.447314
  25         (T2G)--V         15.469665         17.447314
  26         (T2G)--V         15.469665         17.447314
  27         (T2G)--V         15.469665         17.447314
  28         (T1U)--V         16.991832         20.421576
  29         (T1U)--V         16.991832         20.421576
  30         (T1U)--V         16.991832         20.421576
 Total kinetic energy from orbitals= 2.768051661035D+00
 No NMR shielding tensors so no spin-rotation constants.
 Leave Link  601 at Sat Dec 10 19:56:12 2016, MaxMem=  6710886400 cpu:         8.7
 (Enter /ssoft/gaussian/g09-D.01/RH6/x86_E5v2/x86/g09/l9999.exe)

 Test job not archived.
 1\1\GINC-R06-NODE01\SP\RSP81\CC-pVQZ\He1\ONGARI\10-Dec-2016\0\\#p SPL/
 cc-pVQZ GFINPUT IOP(6/7=3) pop=full\\daniele\\0,1\He,0,0.,0.,0.\\Versi
 on=ES64L-G09RevD.01\State=1-A1G\HF=-2.8340165\RMSD=5.314e-09\Dipole=0.
 ,0.,0.\Quadrupole=0.,0.,0.,0.,0.,0.\PG=OH [O(He1)]\\@


 THE SECRET OF SUCCESS IN LIFE IS TO EAT WHAT YOU LIKE, AND LET THE FOOD
 FIGHT IT OUT INSIDE YOU. -- FROM A FORTUNE COOKIE
 Job cpu time:       0 days  0 hours  1 minutes 38.7 seconds.
 File lengths (MBytes):  RWF=      5 Int=      0 D2E=      0 Chk=      1 Scr=      1
 Normal termination of Gaussian 09 at Sat Dec 10 19:56:12 2016.
